n -t * -s 0  -x 455 -y 161 -Z 0 -z 30  -v circle -c green
n -t * -s 1  -x 410 -y 23 -Z 0 -z 30  -v circle -c green
n -t * -s 2  -x 159 -y 217 -Z 0 -z 30  -v circle -c green
n -t * -s 3  -x 45 -y 384 -Z 0 -z 30  -v circle -c green
n -t * -s 4  -x 217 -y 57 -Z 0 -z 30  -v circle -c green
n -t * -s 5  -x 74 -y 359 -Z 0 -z 30  -v circle -c green
n -t * -s 6  -x 50 -y 20 -Z 0 -z 30  -v circle -c green
n -t * -s 7  -x 481 -y 330 -Z 0 -z 30  -v circle -c green
n -t * -s 8  -x 115 -y 313 -Z 0 -z 30  -v circle -c green
n -t * -s 9  -x 223 -y 339 -Z 0 -z 30  -v circle -c green
n -t * -s 10  -x 155 -y 317 -Z 0 -z 30  -v circle -c green
V -t * -v 1.0a5 -a 0
W -t * -x 500 -y 400
A -t * -n 1 -p 0 -o 0x7fffffff -c 30 -a 1
A -t * -h 1 -m 1073741823 -s 0
n -t 0.200000 -s 3 -x 45.000000 -y 384.000000 -U 61.407147 -V -18.032257 -T 2.051878
n -t 0.200000 -s 7 -x 481.000000 -y 330.000000 -U -73.238536 -V -20.300660 -T 6.403733
+ -t 0.400000000 -s 5 -d -1 -p cbr -e 512 -c 2 -a 0 -i 0 -k AGT 
- -t 0.400000000 -s 5 -d -1 -p cbr -e 512 -c 2 -a 0 -i 0 -k AGT
h -t 0.400000000 -s 5 -d -1 -p cbr -e 512 -c 2 -a 0 -i 0 -k AGT
+ -t 0.400000000 -s 5 -d -1 -p AODV -e 48 -c 2 -a 0 -i 0 -k RTR 
- -t 0.400000000 -s 5 -d -1 -p AODV -e 48 -c 2 -a 0 -i 0 -k RTR
h -t 0.400000000 -s 5 -d -1 -p AODV -e 48 -c 2 -a 0 -i 0 -k RTR
r -t 0.401408090 -s 3 -d -1 -p AODV -e 48 -c 2 -a 0 -i 0 -k RTR
r -t 0.401408205 -s 8 -d -1 -p AODV -e 48 -c 2 -a 0 -i 0 -k RTR
r -t 0.401408304 -s 10 -d -1 -p AODV -e 48 -c 2 -a 0 -i 0 -k RTR
r -t 0.401408501 -s 9 -d -1 -p AODV -e 48 -c 2 -a 0 -i 0 -k RTR
r -t 0.401408552 -s 2 -d -1 -p AODV -e 48 -c 2 -a 0 -i 0 -k RTR
+ -t 0.401408552 -s 2 -d 5 -p AODV -e 44 -c 2 -a 0 -i 0 -k RTR 
- -t 0.401408552 -s 2 -d 5 -p AODV -e 44 -c 2 -a 0 -i 0 -k RTR
h -t 0.401408552 -s 2 -d 5 -p AODV -e 44 -c 2 -a 0 -i 0 -k RTR
+ -t 0.401550137 -s 3 -d -1 -p AODV -e 48 -c 2 -a 0 -i 0 -k RTR 
- -t 0.401550137 -s 3 -d -1 -p AODV -e 48 -c 2 -a 0 -i 0 -k RTR
h -t 0.401550137 -s 3 -d -1 -p AODV -e 48 -c 2 -a 0 -i 0 -k RTR
+ -t 0.402289432 -s 8 -d -1 -p AODV -e 48 -c 2 -a 0 -i 0 -k RTR 
- -t 0.402289432 -s 8 -d -1 -p AODV -e 48 -c 2 -a 0 -i 0 -k RTR
h -t 0.402289432 -s 8 -d -1 -p AODV -e 48 -c 2 -a 0 -i 0 -k RTR
r -t 0.403435283 -s 5 -d -1 -p AODV -e 48 -c 2 -a 0 -i 0 -k RTR
r -t 0.403435488 -s 8 -d -1 -p AODV -e 48 -c 2 -a 0 -i 0 -k RTR
r -t 0.403435581 -s 10 -d -1 -p AODV -e 48 -c 2 -a 0 -i 0 -k RTR
r -t 0.403435762 -s 9 -d -1 -p AODV -e 48 -c 2 -a 0 -i 0 -k RTR
r -t 0.403435834 -s 2 -d -1 -p AODV -e 48 -c 2 -a 0 -i 0 -k RTR
+ -t 0.404096000 -s 5 -d -1 -p cbr -e 512 -c 2 -a 0 -i 1 -k AGT 
- -t 0.404096000 -s 5 -d -1 -p cbr -e 512 -c 2 -a 0 -i 1 -k AGT
h -t 0.404096000 -s 5 -d -1 -p cbr -e 512 -c 2 -a 0 -i 1 -k AGT
+ -t 0.405820038 -s 10 -d -1 -p AODV -e 48 -c 2 -a 0 -i 0 -k RTR 
- -t 0.405820038 -s 10 -d -1 -p AODV -e 48 -c 2 -a 0 -i 0 -k RTR
h -t 0.405820038 -s 10 -d -1 -p AODV -e 48 -c 2 -a 0 -i 0 -k RTR
+ -t 0.406828593 -s 5 -d 2 -p cbr -e 532 -c 2 -a 0 -i 0 -k RTR 
- -t 0.406828593 -s 5 -d 2 -p cbr -e 532 -c 2 -a 0 -i 0 -k RTR
h -t 0.406828593 -s 5 -d 2 -p cbr -e 532 -c 2 -a 0 -i 0 -k RTR
r -t 0.408120932 -s 10 -d -1 -p AODV -e 48 -c 2 -a 0 -i 0 -k RTR
r -t 0.408121004 -s 5 -d -1 -p AODV -e 48 -c 2 -a 0 -i 0 -k RTR
r -t 0.408121093 -s 3 -d -1 -p AODV -e 48 -c 2 -a 0 -i 0 -k RTR
r -t 0.408121150 -s 2 -d -1 -p AODV -e 48 -c 2 -a 0 -i 0 -k RTR
r -t 0.408121169 -s 9 -d -1 -p AODV -e 48 -c 2 -a 0 -i 0 -k RTR
+ -t 0.408192000 -s 5 -d -1 -p cbr -e 512 -c 2 -a 0 -i 2 -k AGT 
- -t 0.408192000 -s 5 -d -1 -p cbr -e 512 -c 2 -a 0 -i 2 -k AGT
h -t 0.408192000 -s 5 -d -1 -p cbr -e 512 -c 2 -a 0 -i 2 -k AGT
+ -t 0.408192000 -s 5 -d 2 -p cbr -e 532 -c 2 -a 0 -i 2 -k RTR 
- -t 0.408192000 -s 5 -d 2 -p cbr -e 532 -c 2 -a 0 -i 2 -k RTR
h -t 0.408192000 -s 5 -d 2 -p cbr -e 532 -c 2 -a 0 -i 2 -k RTR
r -t 0.409099066 -s 8 -d -1 -p AODV -e 48 -c 2 -a 0 -i 0 -k RTR
r -t 0.409099171 -s 9 -d -1 -p AODV -e 48 -c 2 -a 0 -i 0 -k RTR
r -t 0.409099236 -s 5 -d -1 -p AODV -e 48 -c 2 -a 0 -i 0 -k RTR
r -t 0.409099266 -s 2 -d -1 -p AODV -e 48 -c 2 -a 0 -i 0 -k RTR
r -t 0.409099319 -s 3 -d -1 -p AODV -e 48 -c 2 -a 0 -i 0 -k RTR
+ -t 0.409400056 -s 9 -d -1 -p AODV -e 48 -c 2 -a 0 -i 0 -k RTR 
- -t 0.409400056 -s 9 -d -1 -p AODV -e 48 -c 2 -a 0 -i 0 -k RTR
h -t 0.409400056 -s 9 -d -1 -p AODV -e 48 -c 2 -a 0 -i 0 -k RTR
+ -t 0.412288000 -s 5 -d -1 -p cbr -e 512 -c 2 -a 0 -i 3 -k AGT 
- -t 0.412288000 -s 5 -d -1 -p cbr -e 512 -c 2 -a 0 -i 3 -k AGT
h -t 0.412288000 -s 5 -d -1 -p cbr -e 512 -c 2 -a 0 -i 3 -k AGT
+ -t 0.412288000 -s 5 -d 2 -p cbr -e 532 -c 2 -a 0 -i 3 -k RTR 
- -t 0.412288000 -s 5 -d 2 -p cbr -e 532 -c 2 -a 0 -i 3 -k RTR
h -t 0.412288000 -s 5 -d 2 -p cbr -e 532 -c 2 -a 0 -i 3 -k RTR
r -t 0.414906891 -s 2 -d 2 -p cbr -e 532 -c 2 -a 0 -i 0 -k AGT
+ -t 0.416384000 -s 5 -d -1 -p cbr -e 512 -c 2 -a 0 -i 4 -k AGT 
- -t 0.416384000 -s 5 -d -1 -p cbr -e 512 -c 2 -a 0 -i 4 -k AGT
h -t 0.416384000 -s 5 -d -1 -p cbr -e 512 -c 2 -a 0 -i 4 -k AGT
+ -t 0.416384000 -s 5 -d 2 -p cbr -e 532 -c 2 -a 0 -i 4 -k RTR 
- -t 0.416384000 -s 5 -d 2 -p cbr -e 532 -c 2 -a 0 -i 4 -k RTR
h -t 0.416384000 -s 5 -d 2 -p cbr -e 532 -c 2 -a 0 -i 4 -k RTR
+ -t 0.416828593 -s 5 -d 2 -p cbr -e 532 -c 2 -a 0 -i 1 -k RTR 
- -t 0.416828593 -s 5 -d 2 -p cbr -e 532 -c 2 -a 0 -i 1 -k RTR
h -t 0.416828593 -s 5 -d 2 -p cbr -e 532 -c 2 -a 0 -i 1 -k RTR
+ -t 0.420480000 -s 5 -d -1 -p cbr -e 512 -c 2 -a 0 -i 5 -k AGT 
- -t 0.420480000 -s 5 -d -1 -p cbr -e 512 -c 2 -a 0 -i 5 -k AGT
h -t 0.420480000 -s 5 -d -1 -p cbr -e 512 -c 2 -a 0 -i 5 -k AGT
+ -t 0.420480000 -s 5 -d 2 -p cbr -e 532 -c 2 -a 0 -i 5 -k RTR 
- -t 0.420480000 -s 5 -d 2 -p cbr -e 532 -c 2 -a 0 -i 5 -k RTR
h -t 0.420480000 -s 5 -d 2 -p cbr -e 532 -c 2 -a 0 -i 5 -k RTR
r -t 0.421009098 -s 2 -d 2 -p cbr -e 532 -c 2 -a 0 -i 2 -k AGT
r -t 0.422361796 -s 10 -d -1 -p AODV -e 48 -c 2 -a 0 -i 0 -k RTR
r -t 0.422361928 -s 8 -d -1 -p AODV -e 48 -c 2 -a 0 -i 0 -k RTR
r -t 0.422362017 -s 2 -d -1 -p AODV -e 48 -c 2 -a 0 -i 0 -k RTR
r -t 0.422362058 -s 5 -d -1 -p AODV -e 48 -c 2 -a 0 -i 0 -k RTR
r -t 0.422362122 -s 3 -d -1 -p AODV -e 48 -c 2 -a 0 -i 0 -k RTR
r -t 0.422362364 -s 7 -d -1 -p AODV -e 48 -c 2 -a 0 -i 0 -k RTR
+ -t 0.424576000 -s 5 -d -1 -p cbr -e 512 -c 2 -a 0 -i 6 -k AGT 
- -t 0.424576000 -s 5 -d -1 -p cbr -e 512 -c 2 -a 0 -i 6 -k AGT
h -t 0.424576000 -s 5 -d -1 -p cbr -e 512 -c 2 -a 0 -i 6 -k AGT
+ -t 0.424576000 -s 5 -d 2 -p cbr -e 532 -c 2 -a 0 -i 6 -k RTR 
- -t 0.424576000 -s 5 -d 2 -p cbr -e 532 -c 2 -a 0 -i 6 -k RTR
h -t 0.424576000 -s 5 -d 2 -p cbr -e 532 -c 2 -a 0 -i 6 -k RTR
+ -t 0.424943244 -s 7 -d -1 -p AODV -e 48 -c 2 -a 0 -i 0 -k RTR 
- -t 0.424943244 -s 7 -d -1 -p AODV -e 48 -c 2 -a 0 -i 0 -k RTR
h -t 0.424943244 -s 7 -d -1 -p AODV -e 48 -c 2 -a 0 -i 0 -k RTR
r -t 0.427989713 -s 2 -d 2 -p cbr -e 532 -c 2 -a 0 -i 3 -k AGT
+ -t 0.428672000 -s 5 -d -1 -p cbr -e 512 -c 2 -a 0 -i 7 -k AGT 
- -t 0.428672000 -s 5 -d -1 -p cbr -e 512 -c 2 -a 0 -i 7 -k AGT
h -t 0.428672000 -s 5 -d -1 -p cbr -e 512 -c 2 -a 0 -i 7 -k AGT
+ -t 0.428672000 -s 5 -d 2 -p cbr -e 532 -c 2 -a 0 -i 7 -k RTR 
- -t 0.428672000 -s 5 -d 2 -p cbr -e 532 -c 2 -a 0 -i 7 -k RTR
h -t 0.428672000 -s 5 -d 2 -p cbr -e 532 -c 2 -a 0 -i 7 -k RTR
+ -t 0.432768000 -s 5 -d -1 -p cbr -e 512 -c 2 -a 0 -i 8 -k AGT 
- -t 0.432768000 -s 5 -d -1 -p cbr -e 512 -c 2 -a 0 -i 8 -k AGT
h -t 0.432768000 -s 5 -d -1 -p cbr -e 512 -c 2 -a 0 -i 8 -k AGT
+ -t 0.432768000 -s 5 -d 2 -p cbr -e 532 -c 2 -a 0 -i 8 -k RTR 
- -t 0.432768000 -s 5 -d 2 -p cbr -e 532 -c 2 -a 0 -i 8 -k RTR
h -t 0.432768000 -s 5 -d 2 -p cbr -e 532 -c 2 -a 0 -i 8 -k RTR
r -t 0.433991920 -s 2 -d 2 -p cbr -e 532 -c 2 -a 0 -i 4 -k AGT
r -t 0.435589547 -s 0 -d -1 -p AODV -e 48 -c 2 -a 0 -i 0 -k RTR
r -t 0.435589802 -s 9 -d -1 -p AODV -e 48 -c 2 -a 0 -i 0 -k RTR
+ -t 0.436864000 -s 5 -d -1 -p cbr -e 512 -c 2 -a 0 -i 9 -k AGT 
- -t 0.436864000 -s 5 -d -1 -p cbr -e 512 -c 2 -a 0 -i 9 -k AGT
h -t 0.436864000 -s 5 -d -1 -p cbr -e 512 -c 2 -a 0 -i 9 -k AGT
+ -t 0.436864000 -s 5 -d 2 -p cbr -e 532 -c 2 -a 0 -i 9 -k RTR 
- -t 0.436864000 -s 5 -d 2 -p cbr -e 532 -c 2 -a 0 -i 9 -k RTR
h -t 0.436864000 -s 5 -d 2 -p cbr -e 532 -c 2 -a 0 -i 9 -k RTR
+ -t 0.440960000 -s 5 -d -1 -p cbr -e 512 -c 2 -a 0 -i 10 -k AGT 
- -t 0.440960000 -s 5 -d -1 -p cbr -e 512 -c 2 -a 0 -i 10 -k AGT
h -t 0.440960000 -s 5 -d -1 -p cbr -e 512 -c 2 -a 0 -i 10 -k AGT
+ -t 0.440960000 -s 5 -d 2 -p cbr -e 532 -c 2 -a 0 -i 10 -k RTR 
- -t 0.440960000 -s 5 -d 2 -p cbr -e 532 -c 2 -a 0 -i 10 -k RTR
h -t 0.440960000 -s 5 -d 2 -p cbr -e 532 -c 2 -a 0 -i 10 -k RTR
r -t 0.441461958 -s 2 -d 2 -p cbr -e 532 -c 2 -a 0 -i 1 -k AGT
+ -t 0.444210219 -s 0 -d -1 -p AODV -e 48 -c 2 -a 0 -i 0 -k RTR 
- -t 0.444210219 -s 0 -d -1 -p AODV -e 48 -c 2 -a 0 -i 0 -k RTR
h -t 0.444210219 -s 0 -d -1 -p AODV -e 48 -c 2 -a 0 -i 0 -k RTR
+ -t 0.445056000 -s 5 -d -1 -p cbr -e 512 -c 2 -a 0 -i 11 -k AGT 
- -t 0.445056000 -s 5 -d -1 -p cbr -e 512 -c 2 -a 0 -i 11 -k AGT
h -t 0.445056000 -s 5 -d -1 -p cbr -e 512 -c 2 -a 0 -i 11 -k AGT
+ -t 0.445056000 -s 5 -d 2 -p cbr -e 532 -c 2 -a 0 -i 11 -k RTR 
- -t 0.445056000 -s 5 -d 2 -p cbr -e 532 -c 2 -a 0 -i 11 -k RTR
h -t 0.445056000 -s 5 -d 2 -p cbr -e 532 -c 2 -a 0 -i 11 -k RTR
r -t 0.447624164 -s 2 -d 2 -p cbr -e 532 -c 2 -a 0 -i 5 -k AGT
+ -t 0.449152000 -s 5 -d -1 -p cbr -e 512 -c 2 -a 0 -i 12 -k AGT 
- -t 0.449152000 -s 5 -d -1 -p cbr -e 512 -c 2 -a 0 -i 12 -k AGT
h -t 0.449152000 -s 5 -d -1 -p cbr -e 512 -c 2 -a 0 -i 12 -k AGT
+ -t 0.449152000 -s 5 -d 2 -p cbr -e 532 -c 2 -a 0 -i 12 -k RTR 
- -t 0.449152000 -s 5 -d 2 -p cbr -e 532 -c 2 -a 0 -i 12 -k RTR
h -t 0.449152000 -s 5 -d 2 -p cbr -e 532 -c 2 -a 0 -i 12 -k RTR
+ -t 0.453248000 -s 5 -d -1 -p cbr -e 512 -c 2 -a 0 -i 13 -k AGT 
- -t 0.453248000 -s 5 -d -1 -p cbr -e 512 -c 2 -a 0 -i 13 -k AGT
h -t 0.453248000 -s 5 -d -1 -p cbr -e 512 -c 2 -a 0 -i 13 -k AGT
+ -t 0.453248000 -s 5 -d 2 -p cbr -e 532 -c 2 -a 0 -i 13 -k RTR 
- -t 0.453248000 -s 5 -d 2 -p cbr -e 532 -c 2 -a 0 -i 13 -k RTR
h -t 0.453248000 -s 5 -d 2 -p cbr -e 532 -c 2 -a 0 -i 13 -k RTR
r -t 0.453746371 -s 2 -d 2 -p cbr -e 532 -c 2 -a 0 -i 6 -k AGT
+ -t 0.457344000 -s 5 -d -1 -p cbr -e 512 -c 2 -a 0 -i 14 -k AGT 
- -t 0.457344000 -s 5 -d -1 -p cbr -e 512 -c 2 -a 0 -i 14 -k AGT
h -t 0.457344000 -s 5 -d -1 -p cbr -e 512 -c 2 -a 0 -i 14 -k AGT
+ -t 0.457344000 -s 5 -d 2 -p cbr -e 532 -c 2 -a 0 -i 14 -k RTR 
- -t 0.457344000 -s 5 -d 2 -p cbr -e 532 -c 2 -a 0 -i 14 -k RTR
h -t 0.457344000 -s 5 -d 2 -p cbr -e 532 -c 2 -a 0 -i 14 -k RTR
r -t 0.459548577 -s 2 -d 2 -p cbr -e 532 -c 2 -a 0 -i 7 -k AGT
+ -t 0.461440000 -s 5 -d -1 -p cbr -e 512 -c 2 -a 0 -i 15 -k AGT 
- -t 0.461440000 -s 5 -d -1 -p cbr -e 512 -c 2 -a 0 -i 15 -k AGT
h -t 0.461440000 -s 5 -d -1 -p cbr -e 512 -c 2 -a 0 -i 15 -k AGT
+ -t 0.461440000 -s 5 -d 2 -p cbr -e 532 -c 2 -a 0 -i 15 -k RTR 
- -t 0.461440000 -s 5 -d 2 -p cbr -e 532 -c 2 -a 0 -i 15 -k RTR
h -t 0.461440000 -s 5 -d 2 -p cbr -e 532 -c 2 -a 0 -i 15 -k RTR
+ -t 0.465536000 -s 5 -d -1 -p cbr -e 512 -c 2 -a 0 -i 16 -k AGT 
- -t 0.465536000 -s 5 -d -1 -p cbr -e 512 -c 2 -a 0 -i 16 -k AGT
h -t 0.465536000 -s 5 -d -1 -p cbr -e 512 -c 2 -a 0 -i 16 -k AGT
+ -t 0.465536000 -s 5 -d 2 -p cbr -e 532 -c 2 -a 0 -i 16 -k RTR 
- -t 0.465536000 -s 5 -d 2 -p cbr -e 532 -c 2 -a 0 -i 16 -k RTR
h -t 0.465536000 -s 5 -d 2 -p cbr -e 532 -c 2 -a 0 -i 16 -k RTR
r -t 0.465610784 -s 2 -d 2 -p cbr -e 532 -c 2 -a 0 -i 8 -k AGT
+ -t 0.469632000 -s 5 -d -1 -p cbr -e 512 -c 2 -a 0 -i 17 -k AGT 
- -t 0.469632000 -s 5 -d -1 -p cbr -e 512 -c 2 -a 0 -i 17 -k AGT
h -t 0.469632000 -s 5 -d -1 -p cbr -e 512 -c 2 -a 0 -i 17 -k AGT
+ -t 0.469632000 -s 5 -d 2 -p cbr -e 532 -c 2 -a 0 -i 17 -k RTR 
- -t 0.469632000 -s 5 -d 2 -p cbr -e 532 -c 2 -a 0 -i 17 -k RTR
h -t 0.469632000 -s 5 -d 2 -p cbr -e 532 -c 2 -a 0 -i 17 -k RTR
r -t 0.471732991 -s 2 -d 2 -p cbr -e 532 -c 2 -a 0 -i 9 -k AGT
+ -t 0.473728000 -s 5 -d -1 -p cbr -e 512 -c 2 -a 0 -i 18 -k AGT 
- -t 0.473728000 -s 5 -d -1 -p cbr -e 512 -c 2 -a 0 -i 18 -k AGT
h -t 0.473728000 -s 5 -d -1 -p cbr -e 512 -c 2 -a 0 -i 18 -k AGT
+ -t 0.473728000 -s 5 -d 2 -p cbr -e 532 -c 2 -a 0 -i 18 -k RTR 
- -t 0.473728000 -s 5 -d 2 -p cbr -e 532 -c 2 -a 0 -i 18 -k RTR
h -t 0.473728000 -s 5 -d 2 -p cbr -e 532 -c 2 -a 0 -i 18 -k RTR
r -t 0.477635197 -s 2 -d 2 -p cbr -e 532 -c 2 -a 0 -i 10 -k AGT
+ -t 0.477824000 -s 5 -d -1 -p cbr -e 512 -c 2 -a 0 -i 19 -k AGT 
- -t 0.477824000 -s 5 -d -1 -p cbr -e 512 -c 2 -a 0 -i 19 -k AGT
h -t 0.477824000 -s 5 -d -1 -p cbr -e 512 -c 2 -a 0 -i 19 -k AGT
+ -t 0.477824000 -s 5 -d 2 -p cbr -e 532 -c 2 -a 0 -i 19 -k RTR 
- -t 0.477824000 -s 5 -d 2 -p cbr -e 532 -c 2 -a 0 -i 19 -k RTR
h -t 0.477824000 -s 5 -d 2 -p cbr -e 532 -c 2 -a 0 -i 19 -k RTR
+ -t 0.481920000 -s 5 -d -1 -p cbr -e 512 -c 2 -a 0 -i 20 -k AGT 
- -t 0.481920000 -s 5 -d -1 -p cbr -e 512 -c 2 -a 0 -i 20 -k AGT
h -t 0.481920000 -s 5 -d -1 -p cbr -e 512 -c 2 -a 0 -i 20 -k AGT
+ -t 0.481920000 -s 5 -d 2 -p cbr -e 532 -c 2 -a 0 -i 20 -k RTR 
- -t 0.481920000 -s 5 -d 2 -p cbr -e 532 -c 2 -a 0 -i 20 -k RTR
h -t 0.481920000 -s 5 -d 2 -p cbr -e 532 -c 2 -a 0 -i 20 -k RTR
r -t 0.483477404 -s 2 -d 2 -p cbr -e 532 -c 2 -a 0 -i 11 -k AGT
+ -t 0.486016000 -s 5 -d -1 -p cbr -e 512 -c 2 -a 0 -i 21 -k AGT 
- -t 0.486016000 -s 5 -d -1 -p cbr -e 512 -c 2 -a 0 -i 21 -k AGT
h -t 0.486016000 -s 5 -d -1 -p cbr -e 512 -c 2 -a 0 -i 21 -k AGT
+ -t 0.486016000 -s 5 -d 2 -p cbr -e 532 -c 2 -a 0 -i 21 -k RTR 
- -t 0.486016000 -s 5 -d 2 -p cbr -e 532 -c 2 -a 0 -i 21 -k RTR
h -t 0.486016000 -s 5 -d 2 -p cbr -e 532 -c 2 -a 0 -i 21 -k RTR
r -t 0.489519610 -s 2 -d 2 -p cbr -e 532 -c 2 -a 0 -i 12 -k AGT
+ -t 0.490112000 -s 5 -d -1 -p cbr -e 512 -c 2 -a 0 -i 22 -k AGT 
- -t 0.490112000 -s 5 -d -1 -p cbr -e 512 -c 2 -a 0 -i 22 -k AGT
h -t 0.490112000 -s 5 -d -1 -p cbr -e 512 -c 2 -a 0 -i 22 -k AGT
+ -t 0.490112000 -s 5 -d 2 -p cbr -e 532 -c 2 -a 0 -i 22 -k RTR 
- -t 0.490112000 -s 5 -d 2 -p cbr -e 532 -c 2 -a 0 -i 22 -k RTR
h -t 0.490112000 -s 5 -d 2 -p cbr -e 532 -c 2 -a 0 -i 22 -k RTR
+ -t 0.494208000 -s 5 -d -1 -p cbr -e 512 -c 2 -a 0 -i 23 -k AGT 
- -t 0.494208000 -s 5 -d -1 -p cbr -e 512 -c 2 -a 0 -i 23 -k AGT
h -t 0.494208000 -s 5 -d -1 -p cbr -e 512 -c 2 -a 0 -i 23 -k AGT
+ -t 0.494208000 -s 5 -d 2 -p cbr -e 532 -c 2 -a 0 -i 23 -k RTR 
- -t 0.494208000 -s 5 -d 2 -p cbr -e 532 -c 2 -a 0 -i 23 -k RTR
h -t 0.494208000 -s 5 -d 2 -p cbr -e 532 -c 2 -a 0 -i 23 -k RTR
r -t 0.495481817 -s 2 -d 2 -p cbr -e 532 -c 2 -a 0 -i 13 -k AGT
+ -t 0.498304000 -s 5 -d -1 -p cbr -e 512 -c 2 -a 0 -i 24 -k AGT 
- -t 0.498304000 -s 5 -d -1 -p cbr -e 512 -c 2 -a 0 -i 24 -k AGT
h -t 0.498304000 -s 5 -d -1 -p cbr -e 512 -c 2 -a 0 -i 24 -k AGT
+ -t 0.498304000 -s 5 -d 2 -p cbr -e 532 -c 2 -a 0 -i 24 -k RTR 
- -t 0.498304000 -s 5 -d 2 -p cbr -e 532 -c 2 -a 0 -i 24 -k RTR
h -t 0.498304000 -s 5 -d 2 -p cbr -e 532 -c 2 -a 0 -i 24 -k RTR
r -t 0.501344024 -s 2 -d 2 -p cbr -e 532 -c 2 -a 0 -i 14 -k AGT
+ -t 0.502400000 -s 5 -d -1 -p cbr -e 512 -c 2 -a 0 -i 25 -k AGT 
- -t 0.502400000 -s 5 -d -1 -p cbr -e 512 -c 2 -a 0 -i 25 -k AGT
h -t 0.502400000 -s 5 -d -1 -p cbr -e 512 -c 2 -a 0 -i 25 -k AGT
+ -t 0.502400000 -s 5 -d 2 -p cbr -e 532 -c 2 -a 0 -i 25 -k RTR 
- -t 0.502400000 -s 5 -d 2 -p cbr -e 532 -c 2 -a 0 -i 25 -k RTR
h -t 0.502400000 -s 5 -d 2 -p cbr -e 532 -c 2 -a 0 -i 25 -k RTR
+ -t 0.506496000 -s 5 -d -1 -p cbr -e 512 -c 2 -a 0 -i 26 -k AGT 
- -t 0.506496000 -s 5 -d -1 -p cbr -e 512 -c 2 -a 0 -i 26 -k AGT
h -t 0.506496000 -s 5 -d -1 -p cbr -e 512 -c 2 -a 0 -i 26 -k AGT
+ -t 0.506496000 -s 5 -d 2 -p cbr -e 532 -c 2 -a 0 -i 26 -k RTR 
- -t 0.506496000 -s 5 -d 2 -p cbr -e 532 -c 2 -a 0 -i 26 -k RTR
h -t 0.506496000 -s 5 -d 2 -p cbr -e 532 -c 2 -a 0 -i 26 -k RTR
r -t 0.507626230 -s 2 -d 2 -p cbr -e 532 -c 2 -a 0 -i 15 -k AGT
+ -t 0.510592000 -s 5 -d -1 -p cbr -e 512 -c 2 -a 0 -i 27 -k AGT 
- -t 0.510592000 -s 5 -d -1 -p cbr -e 512 -c 2 -a 0 -i 27 -k AGT
h -t 0.510592000 -s 5 -d -1 -p cbr -e 512 -c 2 -a 0 -i 27 -k AGT
+ -t 0.510592000 -s 5 -d 2 -p cbr -e 532 -c 2 -a 0 -i 27 -k RTR 
- -t 0.510592000 -s 5 -d 2 -p cbr -e 532 -c 2 -a 0 -i 27 -k RTR
h -t 0.510592000 -s 5 -d 2 -p cbr -e 532 -c 2 -a 0 -i 27 -k RTR
r -t 0.513608437 -s 2 -d 2 -p cbr -e 532 -c 2 -a 0 -i 16 -k AGT
+ -t 0.514688000 -s 5 -d -1 -p cbr -e 512 -c 2 -a 0 -i 28 -k AGT 
- -t 0.514688000 -s 5 -d -1 -p cbr -e 512 -c 2 -a 0 -i 28 -k AGT
h -t 0.514688000 -s 5 -d -1 -p cbr -e 512 -c 2 -a 0 -i 28 -k AGT
+ -t 0.514688000 -s 5 -d 2 -p cbr -e 532 -c 2 -a 0 -i 28 -k RTR 
- -t 0.514688000 -s 5 -d 2 -p cbr -e 532 -c 2 -a 0 -i 28 -k RTR
h -t 0.514688000 -s 5 -d 2 -p cbr -e 532 -c 2 -a 0 -i 28 -k RTR
+ -t 0.518784000 -s 5 -d -1 -p cbr -e 512 -c 2 -a 0 -i 29 -k AGT 
- -t 0.518784000 -s 5 -d -1 -p cbr -e 512 -c 2 -a 0 -i 29 -k AGT
h -t 0.518784000 -s 5 -d -1 -p cbr -e 512 -c 2 -a 0 -i 29 -k AGT
+ -t 0.518784000 -s 5 -d 2 -p cbr -e 532 -c 2 -a 0 -i 29 -k RTR 
- -t 0.518784000 -s 5 -d 2 -p cbr -e 532 -c 2 -a 0 -i 29 -k RTR
h -t 0.518784000 -s 5 -d 2 -p cbr -e 532 -c 2 -a 0 -i 29 -k RTR
r -t 0.519570644 -s 2 -d 2 -p cbr -e 532 -c 2 -a 0 -i 17 -k AGT
+ -t 0.522880000 -s 5 -d -1 -p cbr -e 512 -c 2 -a 0 -i 30 -k AGT 
- -t 0.522880000 -s 5 -d -1 -p cbr -e 512 -c 2 -a 0 -i 30 -k AGT
h -t 0.522880000 -s 5 -d -1 -p cbr -e 512 -c 2 -a 0 -i 30 -k AGT
+ -t 0.522880000 -s 5 -d 2 -p cbr -e 532 -c 2 -a 0 -i 30 -k RTR 
- -t 0.522880000 -s 5 -d 2 -p cbr -e 532 -c 2 -a 0 -i 30 -k RTR
h -t 0.522880000 -s 5 -d 2 -p cbr -e 532 -c 2 -a 0 -i 30 -k RTR
r -t 0.525912850 -s 2 -d 2 -p cbr -e 532 -c 2 -a 0 -i 18 -k AGT
+ -t 0.526976000 -s 5 -d -1 -p cbr -e 512 -c 2 -a 0 -i 31 -k AGT 
- -t 0.526976000 -s 5 -d -1 -p cbr -e 512 -c 2 -a 0 -i 31 -k AGT
h -t 0.526976000 -s 5 -d -1 -p cbr -e 512 -c 2 -a 0 -i 31 -k AGT
+ -t 0.526976000 -s 5 -d 2 -p cbr -e 532 -c 2 -a 0 -i 31 -k RTR 
- -t 0.526976000 -s 5 -d 2 -p cbr -e 532 -c 2 -a 0 -i 31 -k RTR
h -t 0.526976000 -s 5 -d 2 -p cbr -e 532 -c 2 -a 0 -i 31 -k RTR
+ -t 0.531072000 -s 5 -d -1 -p cbr -e 512 -c 2 -a 0 -i 32 -k AGT 
- -t 0.531072000 -s 5 -d -1 -p cbr -e 512 -c 2 -a 0 -i 32 -k AGT
h -t 0.531072000 -s 5 -d -1 -p cbr -e 512 -c 2 -a 0 -i 32 -k AGT
+ -t 0.531072000 -s 5 -d 2 -p cbr -e 532 -c 2 -a 0 -i 32 -k RTR 
- -t 0.531072000 -s 5 -d 2 -p cbr -e 532 -c 2 -a 0 -i 32 -k RTR
h -t 0.531072000 -s 5 -d 2 -p cbr -e 532 -c 2 -a 0 -i 32 -k RTR
r -t 0.531735057 -s 2 -d 2 -p cbr -e 532 -c 2 -a 0 -i 19 -k AGT
+ -t 0.535168000 -s 5 -d -1 -p cbr -e 512 -c 2 -a 0 -i 33 -k AGT 
- -t 0.535168000 -s 5 -d -1 -p cbr -e 512 -c 2 -a 0 -i 33 -k AGT
h -t 0.535168000 -s 5 -d -1 -p cbr -e 512 -c 2 -a 0 -i 33 -k AGT
+ -t 0.535168000 -s 5 -d 2 -p cbr -e 532 -c 2 -a 0 -i 33 -k RTR 
- -t 0.535168000 -s 5 -d 2 -p cbr -e 532 -c 2 -a 0 -i 33 -k RTR
h -t 0.535168000 -s 5 -d 2 -p cbr -e 532 -c 2 -a 0 -i 33 -k RTR
r -t 0.537617263 -s 2 -d 2 -p cbr -e 532 -c 2 -a 0 -i 20 -k AGT
+ -t 0.539264000 -s 5 -d -1 -p cbr -e 512 -c 2 -a 0 -i 34 -k AGT 
- -t 0.539264000 -s 5 -d -1 -p cbr -e 512 -c 2 -a 0 -i 34 -k AGT
h -t 0.539264000 -s 5 -d -1 -p cbr -e 512 -c 2 -a 0 -i 34 -k AGT
+ -t 0.539264000 -s 5 -d 2 -p cbr -e 532 -c 2 -a 0 -i 34 -k RTR 
- -t 0.539264000 -s 5 -d 2 -p cbr -e 532 -c 2 -a 0 -i 34 -k RTR
h -t 0.539264000 -s 5 -d 2 -p cbr -e 532 -c 2 -a 0 -i 34 -k RTR
+ -t 0.543360000 -s 5 -d -1 -p cbr -e 512 -c 2 -a 0 -i 35 -k AGT 
- -t 0.543360000 -s 5 -d -1 -p cbr -e 512 -c 2 -a 0 -i 35 -k AGT
h -t 0.543360000 -s 5 -d -1 -p cbr -e 512 -c 2 -a 0 -i 35 -k AGT
+ -t 0.543360000 -s 5 -d 2 -p cbr -e 532 -c 2 -a 0 -i 35 -k RTR 
- -t 0.543360000 -s 5 -d 2 -p cbr -e 532 -c 2 -a 0 -i 35 -k RTR
h -t 0.543360000 -s 5 -d 2 -p cbr -e 532 -c 2 -a 0 -i 35 -k RTR
r -t 0.543719470 -s 2 -d 2 -p cbr -e 532 -c 2 -a 0 -i 21 -k AGT
+ -t 0.547456000 -s 5 -d -1 -p cbr -e 512 -c 2 -a 0 -i 36 -k AGT 
- -t 0.547456000 -s 5 -d -1 -p cbr -e 512 -c 2 -a 0 -i 36 -k AGT
h -t 0.547456000 -s 5 -d -1 -p cbr -e 512 -c 2 -a 0 -i 36 -k AGT
+ -t 0.547456000 -s 5 -d 2 -p cbr -e 532 -c 2 -a 0 -i 36 -k RTR 
- -t 0.547456000 -s 5 -d 2 -p cbr -e 532 -c 2 -a 0 -i 36 -k RTR
h -t 0.547456000 -s 5 -d 2 -p cbr -e 532 -c 2 -a 0 -i 36 -k RTR
r -t 0.549981677 -s 2 -d 2 -p cbr -e 532 -c 2 -a 0 -i 22 -k AGT
+ -t 0.551552000 -s 5 -d -1 -p cbr -e 512 -c 2 -a 0 -i 37 -k AGT 
- -t 0.551552000 -s 5 -d -1 -p cbr -e 512 -c 2 -a 0 -i 37 -k AGT
h -t 0.551552000 -s 5 -d -1 -p cbr -e 512 -c 2 -a 0 -i 37 -k AGT
+ -t 0.551552000 -s 5 -d 2 -p cbr -e 532 -c 2 -a 0 -i 37 -k RTR 
- -t 0.551552000 -s 5 -d 2 -p cbr -e 532 -c 2 -a 0 -i 37 -k RTR
h -t 0.551552000 -s 5 -d 2 -p cbr -e 532 -c 2 -a 0 -i 37 -k RTR
+ -t 0.555648000 -s 5 -d -1 -p cbr -e 512 -c 2 -a 0 -i 38 -k AGT 
- -t 0.555648000 -s 5 -d -1 -p cbr -e 512 -c 2 -a 0 -i 38 -k AGT
h -t 0.555648000 -s 5 -d -1 -p cbr -e 512 -c 2 -a 0 -i 38 -k AGT
+ -t 0.555648000 -s 5 -d 2 -p cbr -e 532 -c 2 -a 0 -i 38 -k RTR 
- -t 0.555648000 -s 5 -d 2 -p cbr -e 532 -c 2 -a 0 -i 38 -k RTR
h -t 0.555648000 -s 5 -d 2 -p cbr -e 532 -c 2 -a 0 -i 38 -k RTR
r -t 0.556023883 -s 2 -d 2 -p cbr -e 532 -c 2 -a 0 -i 23 -k AGT
+ -t 0.559744000 -s 5 -d -1 -p cbr -e 512 -c 2 -a 0 -i 39 -k AGT 
- -t 0.559744000 -s 5 -d -1 -p cbr -e 512 -c 2 -a 0 -i 39 -k AGT
h -t 0.559744000 -s 5 -d -1 -p cbr -e 512 -c 2 -a 0 -i 39 -k AGT
+ -t 0.559744000 -s 5 -d 2 -p cbr -e 532 -c 2 -a 0 -i 39 -k RTR 
- -t 0.559744000 -s 5 -d 2 -p cbr -e 532 -c 2 -a 0 -i 39 -k RTR
h -t 0.559744000 -s 5 -d 2 -p cbr -e 532 -c 2 -a 0 -i 39 -k RTR
r -t 0.561966090 -s 2 -d 2 -p cbr -e 532 -c 2 -a 0 -i 24 -k AGT
+ -t 0.563840000 -s 5 -d -1 -p cbr -e 512 -c 2 -a 0 -i 40 -k AGT 
- -t 0.563840000 -s 5 -d -1 -p cbr -e 512 -c 2 -a 0 -i 40 -k AGT
h -t 0.563840000 -s 5 -d -1 -p cbr -e 512 -c 2 -a 0 -i 40 -k AGT
+ -t 0.563840000 -s 5 -d 2 -p cbr -e 532 -c 2 -a 0 -i 40 -k RTR 
- -t 0.563840000 -s 5 -d 2 -p cbr -e 532 -c 2 -a 0 -i 40 -k RTR
h -t 0.563840000 -s 5 -d 2 -p cbr -e 532 -c 2 -a 0 -i 40 -k RTR
+ -t 0.567936000 -s 5 -d -1 -p cbr -e 512 -c 2 -a 0 -i 41 -k AGT 
- -t 0.567936000 -s 5 -d -1 -p cbr -e 512 -c 2 -a 0 -i 41 -k AGT
h -t 0.567936000 -s 5 -d -1 -p cbr -e 512 -c 2 -a 0 -i 41 -k AGT
+ -t 0.567936000 -s 5 -d 2 -p cbr -e 532 -c 2 -a 0 -i 41 -k RTR 
- -t 0.567936000 -s 5 -d 2 -p cbr -e 532 -c 2 -a 0 -i 41 -k RTR
h -t 0.567936000 -s 5 -d 2 -p cbr -e 532 -c 2 -a 0 -i 41 -k RTR
r -t 0.568008296 -s 2 -d 2 -p cbr -e 532 -c 2 -a 0 -i 25 -k AGT
r -t 0.569665785 -s 1 -d -1 -p AODV -e 48 -c 2 -a 0 -i 0 -k RTR
r -t 0.569665839 -s 7 -d -1 -p AODV -e 48 -c 2 -a 0 -i 0 -k RTR
+ -t 0.572032000 -s 5 -d -1 -p cbr -e 512 -c 2 -a 0 -i 42 -k AGT 
- -t 0.572032000 -s 5 -d -1 -p cbr -e 512 -c 2 -a 0 -i 42 -k AGT
h -t 0.572032000 -s 5 -d -1 -p cbr -e 512 -c 2 -a 0 -i 42 -k AGT
+ -t 0.572032000 -s 5 -d 2 -p cbr -e 532 -c 2 -a 0 -i 42 -k RTR 
- -t 0.572032000 -s 5 -d 2 -p cbr -e 532 -c 2 -a 0 -i 42 -k RTR
h -t 0.572032000 -s 5 -d 2 -p cbr -e 532 -c 2 -a 0 -i 42 -k RTR
r -t 0.575518387 -s 2 -d 2 -p cbr -e 532 -c 2 -a 0 -i 26 -k AGT
+ -t 0.576128000 -s 5 -d -1 -p cbr -e 512 -c 2 -a 0 -i 43 -k AGT 
- -t 0.576128000 -s 5 -d -1 -p cbr -e 512 -c 2 -a 0 -i 43 -k AGT
h -t 0.576128000 -s 5 -d -1 -p cbr -e 512 -c 2 -a 0 -i 43 -k AGT
+ -t 0.576128000 -s 5 -d 2 -p cbr -e 532 -c 2 -a 0 -i 43 -k RTR 
- -t 0.576128000 -s 5 -d 2 -p cbr -e 532 -c 2 -a 0 -i 43 -k RTR
h -t 0.576128000 -s 5 -d 2 -p cbr -e 532 -c 2 -a 0 -i 43 -k RTR
+ -t 0.578432341 -s 1 -d -1 -p AODV -e 48 -c 2 -a 0 -i 0 -k RTR 
- -t 0.578432341 -s 1 -d -1 -p AODV -e 48 -c 2 -a 0 -i 0 -k RTR
h -t 0.578432341 -s 1 -d -1 -p AODV -e 48 -c 2 -a 0 -i 0 -k RTR
+ -t 0.580224000 -s 5 -d -1 -p cbr -e 512 -c 2 -a 0 -i 44 -k AGT 
- -t 0.580224000 -s 5 -d -1 -p cbr -e 512 -c 2 -a 0 -i 44 -k AGT
h -t 0.580224000 -s 5 -d -1 -p cbr -e 512 -c 2 -a 0 -i 44 -k AGT
+ -t 0.580224000 -s 5 -d 2 -p cbr -e 532 -c 2 -a 0 -i 44 -k RTR 
- -t 0.580224000 -s 5 -d 2 -p cbr -e 532 -c 2 -a 0 -i 44 -k RTR
h -t 0.580224000 -s 5 -d 2 -p cbr -e 532 -c 2 -a 0 -i 44 -k RTR
r -t 0.581600593 -s 2 -d 2 -p cbr -e 532 -c 2 -a 0 -i 27 -k AGT
+ -t 0.584320000 -s 5 -d -1 -p cbr -e 512 -c 2 -a 0 -i 45 -k AGT 
- -t 0.584320000 -s 5 -d -1 -p cbr -e 512 -c 2 -a 0 -i 45 -k AGT
h -t 0.584320000 -s 5 -d -1 -p cbr -e 512 -c 2 -a 0 -i 45 -k AGT
+ -t 0.584320000 -s 5 -d 2 -p cbr -e 532 -c 2 -a 0 -i 45 -k RTR 
- -t 0.584320000 -s 5 -d 2 -p cbr -e 532 -c 2 -a 0 -i 45 -k RTR
h -t 0.584320000 -s 5 -d 2 -p cbr -e 532 -c 2 -a 0 -i 45 -k RTR
r -t 0.587582800 -s 2 -d 2 -p cbr -e 532 -c 2 -a 0 -i 28 -k AGT
+ -t 0.588416000 -s 5 -d -1 -p cbr -e 512 -c 2 -a 0 -i 46 -k AGT 
- -t 0.588416000 -s 5 -d -1 -p cbr -e 512 -c 2 -a 0 -i 46 -k AGT
h -t 0.588416000 -s 5 -d -1 -p cbr -e 512 -c 2 -a 0 -i 46 -k AGT
+ -t 0.588416000 -s 5 -d 2 -p cbr -e 532 -c 2 -a 0 -i 46 -k RTR 
- -t 0.588416000 -s 5 -d 2 -p cbr -e 532 -c 2 -a 0 -i 46 -k RTR
h -t 0.588416000 -s 5 -d 2 -p cbr -e 532 -c 2 -a 0 -i 46 -k RTR
+ -t 0.592512000 -s 5 -d -1 -p cbr -e 512 -c 2 -a 0 -i 47 -k AGT 
- -t 0.592512000 -s 5 -d -1 -p cbr -e 512 -c 2 -a 0 -i 47 -k AGT
h -t 0.592512000 -s 5 -d -1 -p cbr -e 512 -c 2 -a 0 -i 47 -k AGT
+ -t 0.592512000 -s 5 -d 2 -p cbr -e 532 -c 2 -a 0 -i 47 -k RTR 
- -t 0.592512000 -s 5 -d 2 -p cbr -e 532 -c 2 -a 0 -i 47 -k RTR
h -t 0.592512000 -s 5 -d 2 -p cbr -e 532 -c 2 -a 0 -i 47 -k RTR
r -t 0.593425007 -s 2 -d 2 -p cbr -e 532 -c 2 -a 0 -i 29 -k AGT
+ -t 0.596608000 -s 5 -d -1 -p cbr -e 512 -c 2 -a 0 -i 48 -k AGT 
- -t 0.596608000 -s 5 -d -1 -p cbr -e 512 -c 2 -a 0 -i 48 -k AGT
h -t 0.596608000 -s 5 -d -1 -p cbr -e 512 -c 2 -a 0 -i 48 -k AGT
+ -t 0.596608000 -s 5 -d 2 -p cbr -e 532 -c 2 -a 0 -i 48 -k RTR 
- -t 0.596608000 -s 5 -d 2 -p cbr -e 532 -c 2 -a 0 -i 48 -k RTR
h -t 0.596608000 -s 5 -d 2 -p cbr -e 532 -c 2 -a 0 -i 48 -k RTR
r -t 0.599487213 -s 2 -d 2 -p cbr -e 532 -c 2 -a 0 -i 30 -k AGT
+ -t 0.600704000 -s 5 -d -1 -p cbr -e 512 -c 2 -a 0 -i 49 -k AGT 
- -t 0.600704000 -s 5 -d -1 -p cbr -e 512 -c 2 -a 0 -i 49 -k AGT
h -t 0.600704000 -s 5 -d -1 -p cbr -e 512 -c 2 -a 0 -i 49 -k AGT
+ -t 0.600704000 -s 5 -d 2 -p cbr -e 532 -c 2 -a 0 -i 49 -k RTR 
- -t 0.600704000 -s 5 -d 2 -p cbr -e 532 -c 2 -a 0 -i 49 -k RTR
h -t 0.600704000 -s 5 -d 2 -p cbr -e 532 -c 2 -a 0 -i 49 -k RTR
+ -t 0.604800000 -s 5 -d -1 -p cbr -e 512 -c 2 -a 0 -i 50 -k AGT 
- -t 0.604800000 -s 5 -d -1 -p cbr -e 512 -c 2 -a 0 -i 50 -k AGT
h -t 0.604800000 -s 5 -d -1 -p cbr -e 512 -c 2 -a 0 -i 50 -k AGT
+ -t 0.604800000 -s 5 -d 2 -p cbr -e 532 -c 2 -a 0 -i 50 -k RTR 
- -t 0.604800000 -s 5 -d 2 -p cbr -e 532 -c 2 -a 0 -i 50 -k RTR
h -t 0.604800000 -s 5 -d 2 -p cbr -e 532 -c 2 -a 0 -i 50 -k RTR
r -t 0.605249420 -s 2 -d 2 -p cbr -e 532 -c 2 -a 0 -i 31 -k AGT
+ -t 0.608896000 -s 5 -d -1 -p cbr -e 512 -c 2 -a 0 -i 51 -k AGT 
- -t 0.608896000 -s 5 -d -1 -p cbr -e 512 -c 2 -a 0 -i 51 -k AGT
h -t 0.608896000 -s 5 -d -1 -p cbr -e 512 -c 2 -a 0 -i 51 -k AGT
+ -t 0.608896000 -s 5 -d 2 -p cbr -e 532 -c 2 -a 0 -i 51 -k RTR 
- -t 0.608896000 -s 5 -d 2 -p cbr -e 532 -c 2 -a 0 -i 51 -k RTR
h -t 0.608896000 -s 5 -d 2 -p cbr -e 532 -c 2 -a 0 -i 51 -k RTR
r -t 0.611251627 -s 2 -d 2 -p cbr -e 532 -c 2 -a 0 -i 32 -k AGT
+ -t 0.612992000 -s 5 -d -1 -p cbr -e 512 -c 2 -a 0 -i 52 -k AGT 
- -t 0.612992000 -s 5 -d -1 -p cbr -e 512 -c 2 -a 0 -i 52 -k AGT
h -t 0.612992000 -s 5 -d -1 -p cbr -e 512 -c 2 -a 0 -i 52 -k AGT
+ -t 0.612992000 -s 5 -d 2 -p cbr -e 532 -c 2 -a 0 -i 52 -k RTR 
- -t 0.612992000 -s 5 -d 2 -p cbr -e 532 -c 2 -a 0 -i 52 -k RTR
h -t 0.612992000 -s 5 -d 2 -p cbr -e 532 -c 2 -a 0 -i 52 -k RTR
+ -t 0.617088000 -s 5 -d -1 -p cbr -e 512 -c 2 -a 0 -i 53 -k AGT 
- -t 0.617088000 -s 5 -d -1 -p cbr -e 512 -c 2 -a 0 -i 53 -k AGT
h -t 0.617088000 -s 5 -d -1 -p cbr -e 512 -c 2 -a 0 -i 53 -k AGT
+ -t 0.617088000 -s 5 -d 2 -p cbr -e 532 -c 2 -a 0 -i 53 -k RTR 
- -t 0.617088000 -s 5 -d 2 -p cbr -e 532 -c 2 -a 0 -i 53 -k RTR
h -t 0.617088000 -s 5 -d 2 -p cbr -e 532 -c 2 -a 0 -i 53 -k RTR
r -t 0.617313833 -s 2 -d 2 -p cbr -e 532 -c 2 -a 0 -i 33 -k AGT
+ -t 0.621184000 -s 5 -d -1 -p cbr -e 512 -c 2 -a 0 -i 54 -k AGT 
- -t 0.621184000 -s 5 -d -1 -p cbr -e 512 -c 2 -a 0 -i 54 -k AGT
h -t 0.621184000 -s 5 -d -1 -p cbr -e 512 -c 2 -a 0 -i 54 -k AGT
+ -t 0.621184000 -s 5 -d 2 -p cbr -e 532 -c 2 -a 0 -i 54 -k RTR 
- -t 0.621184000 -s 5 -d 2 -p cbr -e 532 -c 2 -a 0 -i 54 -k RTR
h -t 0.621184000 -s 5 -d 2 -p cbr -e 532 -c 2 -a 0 -i 54 -k RTR
r -t 0.623356040 -s 2 -d 2 -p cbr -e 532 -c 2 -a 0 -i 34 -k AGT
+ -t 0.625280000 -s 5 -d -1 -p cbr -e 512 -c 2 -a 0 -i 55 -k AGT 
- -t 0.625280000 -s 5 -d -1 -p cbr -e 512 -c 2 -a 0 -i 55 -k AGT
h -t 0.625280000 -s 5 -d -1 -p cbr -e 512 -c 2 -a 0 -i 55 -k AGT
+ -t 0.625280000 -s 5 -d 2 -p cbr -e 532 -c 2 -a 0 -i 55 -k RTR 
- -t 0.625280000 -s 5 -d 2 -p cbr -e 532 -c 2 -a 0 -i 55 -k RTR
h -t 0.625280000 -s 5 -d 2 -p cbr -e 532 -c 2 -a 0 -i 55 -k RTR
r -t 0.629138246 -s 2 -d 2 -p cbr -e 532 -c 2 -a 0 -i 35 -k AGT
+ -t 0.629376000 -s 5 -d -1 -p cbr -e 512 -c 2 -a 0 -i 56 -k AGT 
- -t 0.629376000 -s 5 -d -1 -p cbr -e 512 -c 2 -a 0 -i 56 -k AGT
h -t 0.629376000 -s 5 -d -1 -p cbr -e 512 -c 2 -a 0 -i 56 -k AGT
+ -t 0.629376000 -s 5 -d 2 -p cbr -e 532 -c 2 -a 0 -i 56 -k RTR 
- -t 0.629376000 -s 5 -d 2 -p cbr -e 532 -c 2 -a 0 -i 56 -k RTR
h -t 0.629376000 -s 5 -d 2 -p cbr -e 532 -c 2 -a 0 -i 56 -k RTR
+ -t 0.633472000 -s 5 -d -1 -p cbr -e 512 -c 2 -a 0 -i 57 -k AGT 
- -t 0.633472000 -s 5 -d -1 -p cbr -e 512 -c 2 -a 0 -i 57 -k AGT
h -t 0.633472000 -s 5 -d -1 -p cbr -e 512 -c 2 -a 0 -i 57 -k AGT
+ -t 0.633472000 -s 5 -d 2 -p cbr -e 532 -c 2 -a 0 -i 57 -k RTR 
- -t 0.633472000 -s 5 -d 2 -p cbr -e 532 -c 2 -a 0 -i 57 -k RTR
h -t 0.633472000 -s 5 -d 2 -p cbr -e 532 -c 2 -a 0 -i 57 -k RTR
r -t 0.635380453 -s 2 -d 2 -p cbr -e 532 -c 2 -a 0 -i 36 -k AGT
+ -t 0.637568000 -s 5 -d -1 -p cbr -e 512 -c 2 -a 0 -i 58 -k AGT 
- -t 0.637568000 -s 5 -d -1 -p cbr -e 512 -c 2 -a 0 -i 58 -k AGT
h -t 0.637568000 -s 5 -d -1 -p cbr -e 512 -c 2 -a 0 -i 58 -k AGT
+ -t 0.637568000 -s 5 -d 2 -p cbr -e 532 -c 2 -a 0 -i 58 -k RTR 
- -t 0.637568000 -s 5 -d 2 -p cbr -e 532 -c 2 -a 0 -i 58 -k RTR
h -t 0.637568000 -s 5 -d 2 -p cbr -e 532 -c 2 -a 0 -i 58 -k RTR
r -t 0.641382660 -s 2 -d 2 -p cbr -e 532 -c 2 -a 0 -i 37 -k AGT
+ -t 0.641664000 -s 5 -d -1 -p cbr -e 512 -c 2 -a 0 -i 59 -k AGT 