M 0.20000 3 (45.00, 384.00, 0.00), (171.00, 347.00), 64.00
M 0.20000 7 (481.00, 330.00, 0.00), (12.00, 200.00), 76.00
s 0.400000000 _5_ AGT  --- 0 cbr 512 [0 0 0 0] [energy 1000.000000 ei 0.000 es 0.000 et 0.000 er 0.000] ------- [5:0 2:0 32 0] [0] 0 0
r 0.400000000 _5_ RTR  --- 0 cbr 512 [0 0 0 0] [energy 1000.000000 ei 0.000 es 0.000 et 0.000 er 0.000] ------- [5:0 2:0 32 0] [0] 0 0
s 0.400000000 _5_ RTR  --- 0 AODV 48 [0 0 0 0] [energy 1000.000000 ei 0.000 es 0.000 et 0.000 er 0.000] ------- [5:255 -1:255 30 0] [0x2 1 1 [2 0] [5 4]] (REQUEST)
N -t 0.400535 -n 3 -e 999.759340
N -t 0.400535 -n 8 -e 999.759340
N -t 0.400535 -n 10 -e 999.759340
N -t 0.400536 -n 9 -e 999.759339
N -t 0.400536 -n 2 -e 999.759339
N -t 0.400536 -n 4 -e 999.759339
N -t 0.400536 -n 6 -e 999.759339
N -t 0.400536 -n 7 -e 999.759339
N -t 0.400536 -n 0 -e 999.759339
N -t 0.400537 -n 1 -e 999.759339
r 0.401408090 _3_ RTR  --- 0 AODV 48 [0 ffffffff 5 800] [energy 999.759340 ei 0.240 es 0.000 et 0.000 er 0.000] ------- [5:255 -1:255 30 0] [0x2 1 1 [2 0] [5 4]] (REQUEST)
r 0.401408205 _8_ RTR  --- 0 AODV 48 [0 ffffffff 5 800] [energy 999.759340 ei 0.240 es 0.000 et 0.000 er 0.000] ------- [5:255 -1:255 30 0] [0x2 1 1 [2 0] [5 4]] (REQUEST)
r 0.401408304 _10_ RTR  --- 0 AODV 48 [0 ffffffff 5 800] [energy 999.759340 ei 0.240 es 0.000 et 0.000 er 0.000] ------- [5:255 -1:255 30 0] [0x2 1 1 [2 0] [5 4]] (REQUEST)
r 0.401408501 _9_ RTR  --- 0 AODV 48 [0 ffffffff 5 800] [energy 999.759339 ei 0.240 es 0.000 et 0.000 er 0.000] ------- [5:255 -1:255 30 0] [0x2 1 1 [2 0] [5 4]] (REQUEST)
r 0.401408552 _2_ RTR  --- 0 AODV 48 [0 ffffffff 5 800] [energy 999.759339 ei 0.240 es 0.000 et 0.000 er 0.000] ------- [5:255 -1:255 30 0] [0x2 1 1 [2 0] [5 4]] (REQUEST)
s 0.401408552 _2_ RTR  --- 0 AODV 44 [0 0 0 0] [energy 999.759339 ei 0.240 es 0.000 et 0.000 er 0.000] ------- [2:255 5:255 30 5] [0x4 1 [2 4] 10.000000] (REPLY)
s 0.401550137 _3_ RTR  --- 0 AODV 48 [0 ffffffff 5 800] [energy 999.759340 ei 0.240 es 0.000 et 0.000 er 0.000] ------- [3:255 -1:255 29 0] [0x2 2 1 [2 0] [5 4]] (REQUEST)
N -t 0.401624 -n 10 -e 999.758920
N -t 0.401624 -n 8 -e 999.758920
N -t 0.401624 -n 9 -e 999.758920
N -t 0.401624 -n 5 -e 999.758411
N -t 0.401624 -n 4 -e 999.758920
N -t 0.401624 -n 3 -e 999.758920
N -t 0.401624 -n 6 -e 999.758920
N -t 0.401625 -n 0 -e 999.758920
N -t 0.401625 -n 1 -e 999.758920
N -t 0.401625 -n 7 -e 999.758920
s 0.402289432 _8_ RTR  --- 0 AODV 48 [0 ffffffff 5 800] [energy 999.758920 ei 0.240 es 0.000 et 0.000 er 0.001] ------- [8:255 -1:255 29 0] [0x2 2 1 [2 0] [5 4]] (REQUEST)
N -t 0.402562 -n 5 -e 999.757922
N -t 0.402562 -n 8 -e 999.758431
N -t 0.402563 -n 10 -e 999.758430
N -t 0.402563 -n 9 -e 999.758430
N -t 0.402563 -n 2 -e 999.758017
N -t 0.402563 -n 6 -e 999.758430
N -t 0.402563 -n 4 -e 999.758430
N -t 0.402564 -n 7 -e 999.758430
N -t 0.402564 -n 0 -e 999.758430
N -t 0.402564 -n 1 -e 999.758430
r 0.403435283 _5_ RTR  --- 0 AODV 48 [0 ffffffff 3 800] [energy 999.757922 ei 0.241 es 0.000 et 0.001 er 0.001] ------- [3:255 -1:255 29 0] [0x2 2 1 [2 0] [5 4]] (REQUEST)
r 0.403435488 _8_ RTR  --- 0 AODV 48 [0 ffffffff 3 800] [energy 999.758431 ei 0.241 es 0.000 et 0.000 er 0.001] ------- [3:255 -1:255 29 0] [0x2 2 1 [2 0] [5 4]] (REQUEST)
r 0.403435581 _10_ RTR  --- 0 AODV 48 [0 ffffffff 3 800] [energy 999.758430 ei 0.241 es 0.000 et 0.000 er 0.001] ------- [3:255 -1:255 29 0] [0x2 2 1 [2 0] [5 4]] (REQUEST)
r 0.403435762 _9_ RTR  --- 0 AODV 48 [0 ffffffff 3 800] [energy 999.758430 ei 0.241 es 0.000 et 0.000 er 0.001] ------- [3:255 -1:255 29 0] [0x2 2 1 [2 0] [5 4]] (REQUEST)
r 0.403435834 _2_ RTR  --- 0 AODV 48 [0 ffffffff 3 800] [energy 999.758017 ei 0.241 es 0.000 et 0.001 er 0.001] ------- [3:255 -1:255 29 0] [0x2 2 1 [2 0] [5 4]] (REQUEST)
N -t 0.403540 -n 3 -e 999.757703
N -t 0.403540 -n 8 -e 999.758212
N -t 0.403541 -n 10 -e 999.758212
N -t 0.403541 -n 9 -e 999.758212
N -t 0.403541 -n 2 -e 999.757799
N -t 0.403541 -n 4 -e 999.758211
N -t 0.403541 -n 6 -e 999.758211
N -t 0.403542 -n 7 -e 999.758211
N -t 0.403542 -n 0 -e 999.758211
N -t 0.403542 -n 1 -e 999.758211
N -t 0.403903 -n 10 -e 999.758084
N -t 0.403903 -n 8 -e 999.758084
N -t 0.403903 -n 9 -e 999.758084
N -t 0.403903 -n 5 -e 999.757364
N -t 0.403903 -n 4 -e 999.758084
N -t 0.403903 -n 3 -e 999.757575
N -t 0.403904 -n 6 -e 999.758083
N -t 0.403904 -n 0 -e 999.758083
N -t 0.403904 -n 1 -e 999.758083
N -t 0.403904 -n 7 -e 999.758083
s 0.404096000 _5_ AGT  --- 1 cbr 512 [0 0 0 0] [energy 999.757364 ei 0.241 es 0.000 et 0.001 er 0.001] ------- [5:0 2:0 32 0] [1] 0 0
r 0.404096000 _5_ RTR  --- 1 cbr 512 [0 0 0 0] [energy 999.757364 ei 0.241 es 0.000 et 0.001 er 0.001] ------- [5:0 2:0 32 0] [1] 0 0
N -t 0.404217 -n 3 -e 999.757294
N -t 0.404218 -n 8 -e 999.757802
N -t 0.404218 -n 10 -e 999.757802
N -t 0.404218 -n 9 -e 999.757802
N -t 0.404218 -n 2 -e 999.757207
N -t 0.404219 -n 4 -e 999.757802
N -t 0.404219 -n 6 -e 999.757802
N -t 0.404219 -n 7 -e 999.757802
N -t 0.404219 -n 0 -e 999.757802
N -t 0.404219 -n 1 -e 999.757801
N -t 0.404916 -n 10 -e 999.757674
N -t 0.404916 -n 8 -e 999.757674
N -t 0.404916 -n 9 -e 999.757674
N -t 0.404916 -n 5 -e 999.756541
N -t 0.404917 -n 4 -e 999.757674
N -t 0.404917 -n 3 -e 999.757165
N -t 0.404917 -n 6 -e 999.757674
N -t 0.404917 -n 0 -e 999.757674
N -t 0.404917 -n 1 -e 999.757674
N -t 0.404917 -n 7 -e 999.757674
N -t 0.405310 -n 10 -e 999.757479
N -t 0.405310 -n 8 -e 999.757479
N -t 0.405310 -n 9 -e 999.757479
N -t 0.405310 -n 5 -e 999.756347
N -t 0.405311 -n 4 -e 999.757479
N -t 0.405311 -n 3 -e 999.756970
N -t 0.405311 -n 6 -e 999.757479
N -t 0.405311 -n 0 -e 999.757479
N -t 0.405311 -n 1 -e 999.757479
N -t 0.405311 -n 7 -e 999.757479
N -t 0.405673 -n 3 -e 999.756843
N -t 0.405673 -n 8 -e 999.757352
N -t 0.405673 -n 10 -e 999.757352
N -t 0.405673 -n 9 -e 999.757351
N -t 0.405673 -n 2 -e 999.756363
N -t 0.405674 -n 4 -e 999.757351
N -t 0.405674 -n 6 -e 999.757351
N -t 0.405674 -n 7 -e 999.757351
N -t 0.405674 -n 0 -e 999.757351
N -t 0.405674 -n 1 -e 999.757351
s 0.405820038 _10_ RTR  --- 0 AODV 48 [0 ffffffff 5 800] [energy 999.757352 ei 0.241 es 0.000 et 0.000 er 0.002] ------- [10:255 -1:255 29 0] [0x2 2 1 [2 0] [5 4]] (REQUEST)
N -t 0.405987 -n 10 -e 999.757019
N -t 0.405987 -n 8 -e 999.757019
N -t 0.405988 -n 9 -e 999.757019
N -t 0.405988 -n 5 -e 999.755703
N -t 0.405988 -n 4 -e 999.757019
N -t 0.405988 -n 3 -e 999.756510
N -t 0.405988 -n 6 -e 999.757019
N -t 0.405988 -n 0 -e 999.757018
N -t 0.405988 -n 1 -e 999.757018
N -t 0.405988 -n 7 -e 999.757018
N -t 0.406814 -n 3 -e 999.756382
N -t 0.406814 -n 8 -e 999.756891
N -t 0.406814 -n 10 -e 999.756891
N -t 0.406814 -n 9 -e 999.756891
N -t 0.406814 -n 2 -e 999.755412
N -t 0.406815 -n 4 -e 999.756890
N -t 0.406815 -n 6 -e 999.756890
N -t 0.406815 -n 7 -e 999.756890
N -t 0.406815 -n 0 -e 999.756890
N -t 0.406815 -n 1 -e 999.756890
r 0.406828593 _5_ RTR  --- 0 AODV 44 [13a 5 2 800] [energy 999.755393 ei 0.241 es 0.000 et 0.002 er 0.001] ------- [2:255 5:255 30 5] [0x4 1 [2 4] 10.000000] (REPLY)
s 0.406828593 _5_ RTR  --- 0 cbr 532 [0 0 0 0] [energy 999.755393 ei 0.241 es 0.000 et 0.002 er 0.001] ------- [5:0 2:0 30 2] [0] 0 0
N -t 0.407248 -n 10 -e 999.756474
N -t 0.407248 -n 5 -e 999.754976
N -t 0.407248 -n 3 -e 999.755965
N -t 0.407248 -n 2 -e 999.754995
N -t 0.407248 -n 9 -e 999.756473
N -t 0.407249 -n 4 -e 999.756473
N -t 0.407249 -n 6 -e 999.756473
N -t 0.407249 -n 7 -e 999.756473
N -t 0.407249 -n 0 -e 999.756473
N -t 0.407249 -n 1 -e 999.756473
r 0.408120932 _10_ RTR  --- 0 AODV 48 [0 ffffffff 8 800] [energy 999.756474 ei 0.241 es 0.000 et 0.000 er 0.003] ------- [8:255 -1:255 29 0] [0x2 2 1 [2 0] [5 4]] (REQUEST)
r 0.408121004 _5_ RTR  --- 0 AODV 48 [0 ffffffff 8 800] [energy 999.754976 ei 0.241 es 0.000 et 0.002 er 0.002] ------- [8:255 -1:255 29 0] [0x2 2 1 [2 0] [5 4]] (REQUEST)
r 0.408121093 _3_ RTR  --- 0 AODV 48 [0 ffffffff 8 800] [energy 999.755965 ei 0.241 es 0.000 et 0.001 er 0.002] ------- [8:255 -1:255 29 0] [0x2 2 1 [2 0] [5 4]] (REQUEST)
r 0.408121150 _2_ RTR  --- 0 AODV 48 [0 ffffffff 8 800] [energy 999.754995 ei 0.241 es 0.000 et 0.002 er 0.002] ------- [8:255 -1:255 29 0] [0x2 2 1 [2 0] [5 4]] (REQUEST)
r 0.408121169 _9_ RTR  --- 0 AODV 48 [0 ffffffff 8 800] [energy 999.756473 ei 0.241 es 0.000 et 0.000 er 0.003] ------- [8:255 -1:255 29 0] [0x2 2 1 [2 0] [5 4]] (REQUEST)
s 0.408192000 _5_ AGT  --- 2 cbr 512 [0 0 0 0] [energy 999.754976 ei 0.241 es 0.000 et 0.002 er 0.002] ------- [5:0 2:0 32 0] [2] 0 0
r 0.408192000 _5_ RTR  --- 2 cbr 512 [0 0 0 0] [energy 999.754976 ei 0.241 es 0.000 et 0.002 er 0.002] ------- [5:0 2:0 32 0] [2] 0 0
s 0.408192000 _5_ RTR  --- 2 cbr 532 [0 0 0 0] [energy 999.754976 ei 0.241 es 0.000 et 0.002 er 0.002] ------- [5:0 2:0 30 2] [2] 0 0
N -t 0.408226 -n 8 -e 999.755548
N -t 0.408226 -n 9 -e 999.756056
N -t 0.408226 -n 5 -e 999.754559
N -t 0.408226 -n 2 -e 999.754578
N -t 0.408226 -n 3 -e 999.755547
N -t 0.408227 -n 4 -e 999.756056
N -t 0.408227 -n 7 -e 999.756056
N -t 0.408227 -n 6 -e 999.756056
N -t 0.408227 -n 0 -e 999.756056
N -t 0.408227 -n 1 -e 999.756056
r 0.409099066 _8_ RTR  --- 0 AODV 48 [0 ffffffff a 800] [energy 999.755548 ei 0.241 es 0.000 et 0.001 er 0.003] ------- [10:255 -1:255 29 0] [0x2 2 1 [2 0] [5 4]] (REQUEST)
r 0.409099171 _9_ RTR  --- 0 AODV 48 [0 ffffffff a 800] [energy 999.756056 ei 0.241 es 0.000 et 0.000 er 0.003] ------- [10:255 -1:255 29 0] [0x2 2 1 [2 0] [5 4]] (REQUEST)
r 0.409099236 _5_ RTR  --- 0 AODV 48 [0 ffffffff a 800] [energy 999.754559 ei 0.241 es 0.000 et 0.002 er 0.002] ------- [10:255 -1:255 29 0] [0x2 2 1 [2 0] [5 4]] (REQUEST)
r 0.409099266 _2_ RTR  --- 0 AODV 48 [0 ffffffff a 800] [energy 999.754578 ei 0.241 es 0.000 et 0.002 er 0.002] ------- [10:255 -1:255 29 0] [0x2 2 1 [2 0] [5 4]] (REQUEST)
r 0.409099319 _3_ RTR  --- 0 AODV 48 [0 ffffffff a 800] [energy 999.755547 ei 0.241 es 0.000 et 0.001 er 0.003] ------- [10:255 -1:255 29 0] [0x2 2 1 [2 0] [5 4]] (REQUEST)
s 0.409400056 _9_ RTR  --- 0 AODV 48 [0 ffffffff 5 800] [energy 999.756056 ei 0.241 es 0.000 et 0.000 er 0.003] ------- [9:255 -1:255 29 0] [0x2 2 1 [2 0] [5 4]] (REQUEST)
N -t 0.409484 -n 3 -e 999.755161
N -t 0.409484 -n 8 -e 999.755161
N -t 0.409485 -n 10 -e 999.755160
N -t 0.409485 -n 9 -e 999.755669
N -t 0.409485 -n 2 -e 999.754191
N -t 0.409485 -n 4 -e 999.755669
N -t 0.409485 -n 6 -e 999.755669
N -t 0.409486 -n 7 -e 999.755669
N -t 0.409486 -n 0 -e 999.755669
N -t 0.409486 -n 1 -e 999.755669
N -t 0.409847 -n 10 -e 999.755033
N -t 0.409847 -n 8 -e 999.755033
N -t 0.409847 -n 9 -e 999.755541
N -t 0.409847 -n 5 -e 999.753832
N -t 0.409847 -n 4 -e 999.755541
N -t 0.409847 -n 3 -e 999.755032
N -t 0.409848 -n 6 -e 999.755541
N -t 0.409848 -n 0 -e 999.755541
N -t 0.409848 -n 1 -e 999.755541
N -t 0.409848 -n 7 -e 999.755541
N -t 0.410161 -n 3 -e 999.753138
N -t 0.410162 -n 8 -e 999.753138
N -t 0.410162 -n 10 -e 999.753138
N -t 0.410162 -n 9 -e 999.753647
N -t 0.410162 -n 2 -e 999.751986
N -t 0.410162 -n 4 -e 999.753647
N -t 0.410162 -n 6 -e 999.753647
N -t 0.410163 -n 7 -e 999.753646
N -t 0.410163 -n 0 -e 999.753646
N -t 0.410163 -n 1 -e 999.753646
s 0.412288000 _5_ AGT  --- 3 cbr 512 [0 0 0 0] [energy 999.749106 ei 0.241 es 0.000 et 0.008 er 0.002] ------- [5:0 2:0 32 0] [3] 0 0
r 0.412288000 _5_ RTR  --- 3 cbr 512 [0 0 0 0] [energy 999.749106 ei 0.241 es 0.000 et 0.008 er 0.002] ------- [5:0 2:0 32 0] [3] 0 0
s 0.412288000 _5_ RTR  --- 3 cbr 532 [0 0 0 0] [energy 999.749106 ei 0.241 es 0.000 et 0.008 er 0.002] ------- [5:0 2:0 30 2] [3] 0 0
N -t 0.414892 -n 10 -e 999.753010
N -t 0.414892 -n 8 -e 999.753010
N -t 0.414892 -n 9 -e 999.753519
N -t 0.414892 -n 5 -e 999.748978
N -t 0.414892 -n 4 -e 999.753519
N -t 0.414893 -n 3 -e 999.753010
N -t 0.414893 -n 6 -e 999.753519
N -t 0.414893 -n 0 -e 999.753519
N -t 0.414893 -n 1 -e 999.753519
N -t 0.414893 -n 7 -e 999.753519
r 0.414906891 _2_ AGT  --- 0 cbr 532 [13a 2 5 800] [energy 999.751676 ei 0.241 es 0.000 et 0.003 er 0.004] ------- [5:0 2:0 30 2] [0] 1 0
N -t 0.415587 -n 3 -e 999.752635
N -t 0.415587 -n 8 -e 999.752635
N -t 0.415587 -n 10 -e 999.752635
N -t 0.415587 -n 9 -e 999.753144
N -t 0.415587 -n 2 -e 999.751301
N -t 0.415588 -n 4 -e 999.753143
N -t 0.415588 -n 6 -e 999.753143
N -t 0.415588 -n 7 -e 999.753143
N -t 0.415588 -n 0 -e 999.753143
N -t 0.415588 -n 1 -e 999.753143
N -t 0.415949 -n 10 -e 999.752507
N -t 0.415949 -n 8 -e 999.752507
N -t 0.415949 -n 9 -e 999.753016
N -t 0.415950 -n 5 -e 999.748264
N -t 0.415950 -n 4 -e 999.753016
N -t 0.415950 -n 3 -e 999.752507
N -t 0.415950 -n 6 -e 999.753016
N -t 0.415950 -n 0 -e 999.753016
N -t 0.415950 -n 1 -e 999.753016
N -t 0.415950 -n 7 -e 999.753016
N -t 0.416264 -n 3 -e 999.750613
N -t 0.416264 -n 8 -e 999.750613
N -t 0.416264 -n 10 -e 999.750613
N -t 0.416264 -n 9 -e 999.751122
N -t 0.416264 -n 2 -e 999.749096
N -t 0.416265 -n 4 -e 999.751121
N -t 0.416265 -n 6 -e 999.751121
N -t 0.416265 -n 7 -e 999.751121
N -t 0.416265 -n 0 -e 999.751121
N -t 0.416265 -n 1 -e 999.751121
s 0.416384000 _5_ AGT  --- 4 cbr 512 [0 0 0 0] [energy 999.743538 ei 0.241 es 0.000 et 0.013 er 0.002] ------- [5:0 2:0 32 0] [4] 0 0
r 0.416384000 _5_ RTR  --- 4 cbr 512 [0 0 0 0] [energy 999.743538 ei 0.241 es 0.000 et 0.013 er 0.002] ------- [5:0 2:0 32 0] [4] 0 0
s 0.416384000 _5_ RTR  --- 4 cbr 532 [0 0 0 0] [energy 999.743538 ei 0.241 es 0.000 et 0.013 er 0.002] ------- [5:0 2:0 30 2] [4] 0 0
s 0.416828593 _5_ RTR  --- 1 cbr 532 [0 0 0 0] [energy 999.743538 ei 0.241 es 0.000 et 0.013 er 0.002] ------- [5:0 2:0 30 2] [1] 0 0
s 0.420480000 _5_ AGT  --- 5 cbr 512 [0 0 0 0] [energy 999.743538 ei 0.241 es 0.000 et 0.013 er 0.002] ------- [5:0 2:0 32 0] [5] 0 0
r 0.420480000 _5_ RTR  --- 5 cbr 512 [0 0 0 0] [energy 999.743538 ei 0.241 es 0.000 et 0.013 er 0.002] ------- [5:0 2:0 32 0] [5] 0 0
s 0.420480000 _5_ RTR  --- 5 cbr 532 [0 0 0 0] [energy 999.743538 ei 0.241 es 0.000 et 0.013 er 0.002] ------- [5:0 2:0 30 2] [5] 0 0
N -t 0.420994 -n 10 -e 999.750485
N -t 0.420994 -n 8 -e 999.750485
N -t 0.420995 -n 9 -e 999.750994
N -t 0.420995 -n 5 -e 999.743410
N -t 0.420995 -n 4 -e 999.750994
N -t 0.420995 -n 3 -e 999.750485
N -t 0.420995 -n 6 -e 999.750993
N -t 0.420995 -n 0 -e 999.750993
N -t 0.420995 -n 1 -e 999.750993
N -t 0.420995 -n 7 -e 999.750993
r 0.421009098 _2_ AGT  --- 2 cbr 532 [13a 2 5 800] [energy 999.748786 ei 0.241 es 0.000 et 0.004 er 0.006] ------- [5:0 2:0 30 2] [2] 1 0
N -t 0.421489 -n 10 -e 999.750032
N -t 0.421489 -n 8 -e 999.750031
N -t 0.421489 -n 2 -e 999.748332
N -t 0.421489 -n 5 -e 999.742956
N -t 0.421489 -n 3 -e 999.750031
N -t 0.421489 -n 7 -e 999.750540
N -t 0.421489 -n 4 -e 999.750540
N -t 0.421490 -n 0 -e 999.750540
N -t 0.421490 -n 6 -e 999.750540
N -t 0.421490 -n 1 -e 999.750540
r 0.422361796 _10_ RTR  --- 0 AODV 48 [0 ffffffff 9 800] [energy 999.750032 ei 0.242 es 0.000 et 0.001 er 0.008] ------- [9:255 -1:255 29 0] [0x2 2 1 [2 0] [5 4]] (REQUEST)
r 0.422361928 _8_ RTR  --- 0 AODV 48 [0 ffffffff 9 800] [energy 999.750031 ei 0.242 es 0.000 et 0.001 er 0.008] ------- [9:255 -1:255 29 0] [0x2 2 1 [2 0] [5 4]] (REQUEST)
r 0.422362017 _2_ RTR  --- 0 AODV 48 [0 ffffffff 9 800] [energy 999.748332 ei 0.242 es 0.000 et 0.004 er 0.006] ------- [9:255 -1:255 29 0] [0x2 2 1 [2 0] [5 4]] (REQUEST)
r 0.422362058 _5_ RTR  --- 0 AODV 48 [0 ffffffff 9 800] [energy 999.742956 ei 0.242 es 0.000 et 0.013 er 0.003] ------- [9:255 -1:255 29 0] [0x2 2 1 [2 0] [5 4]] (REQUEST)
r 0.422362122 _3_ RTR  --- 0 AODV 48 [0 ffffffff 9 800] [energy 999.750031 ei 0.242 es 0.000 et 0.001 er 0.008] ------- [9:255 -1:255 29 0] [0x2 2 1 [2 0] [5 4]] (REQUEST)
r 0.422362364 _7_ RTR  --- 0 AODV 48 [0 ffffffff 9 800] [energy 999.750540 ei 0.242 es 0.000 et 0.000 er 0.008] ------- [9:255 -1:255 29 0] [0x2 2 1 [2 0] [5 4]] (REQUEST)
N -t 0.422567 -n 3 -e 999.749753
N -t 0.422567 -n 8 -e 999.749752
N -t 0.422567 -n 10 -e 999.749752
N -t 0.422568 -n 9 -e 999.749752
N -t 0.422568 -n 2 -e 999.748053
N -t 0.422568 -n 4 -e 999.750261
N -t 0.422568 -n 6 -e 999.750261
N -t 0.422568 -n 7 -e 999.750261
N -t 0.422568 -n 0 -e 999.750261
N -t 0.422569 -n 1 -e 999.750260
N -t 0.422930 -n 10 -e 999.749624
N -t 0.422930 -n 8 -e 999.749624
N -t 0.422930 -n 9 -e 999.749624
N -t 0.422930 -n 5 -e 999.742338
N -t 0.422930 -n 4 -e 999.750133
N -t 0.422930 -n 3 -e 999.749624
N -t 0.422930 -n 6 -e 999.750133
N -t 0.422931 -n 0 -e 999.750133
N -t 0.422931 -n 1 -e 999.750133
N -t 0.422931 -n 7 -e 999.750133
N -t 0.423244 -n 3 -e 999.747730
N -t 0.423244 -n 8 -e 999.747730
N -t 0.423244 -n 10 -e 999.747730
N -t 0.423245 -n 9 -e 999.747730
N -t 0.423245 -n 2 -e 999.745848
N -t 0.423245 -n 4 -e 999.748238
N -t 0.423245 -n 6 -e 999.748238
N -t 0.423245 -n 7 -e 999.748238
N -t 0.423246 -n 0 -e 999.748238
N -t 0.423246 -n 1 -e 999.748238
s 0.424576000 _5_ AGT  --- 6 cbr 512 [0 0 0 0] [energy 999.737612 ei 0.242 es 0.000 et 0.018 er 0.003] ------- [5:0 2:0 32 0] [6] 0 0
r 0.424576000 _5_ RTR  --- 6 cbr 512 [0 0 0 0] [energy 999.737612 ei 0.242 es 0.000 et 0.018 er 0.003] ------- [5:0 2:0 32 0] [6] 0 0
s 0.424576000 _5_ RTR  --- 6 cbr 532 [0 0 0 0] [energy 999.737612 ei 0.242 es 0.000 et 0.018 er 0.003] ------- [5:0 2:0 30 2] [6] 0 0
s 0.424943244 _7_ RTR  --- 0 AODV 48 [0 ffffffff 9 800] [energy 999.748238 ei 0.242 es 0.000 et 0.000 er 0.010] ------- [7:255 -1:255 28 0] [0x2 3 1 [2 0] [5 4]] (REQUEST)
N -t 0.427975 -n 10 -e 999.747602
N -t 0.427975 -n 8 -e 999.747602
N -t 0.427975 -n 9 -e 999.747602
N -t 0.427975 -n 5 -e 999.737484
N -t 0.427975 -n 4 -e 999.748111
N -t 0.427975 -n 3 -e 999.747602
N -t 0.427975 -n 6 -e 999.748111
N -t 0.427976 -n 0 -e 999.748111
N -t 0.427976 -n 1 -e 999.748111
N -t 0.427976 -n 7 -e 999.748111
r 0.427989713 _2_ AGT  --- 3 cbr 532 [13a 2 5 800] [energy 999.745538 ei 0.242 es 0.000 et 0.004 er 0.008] ------- [5:0 2:0 30 2] [3] 1 0
N -t 0.428569 -n 3 -e 999.747287
N -t 0.428569 -n 8 -e 999.747287
N -t 0.428570 -n 10 -e 999.747287
N -t 0.428570 -n 9 -e 999.747287
N -t 0.428570 -n 2 -e 999.745223
N -t 0.428570 -n 4 -e 999.747795
N -t 0.428570 -n 6 -e 999.747795
N -t 0.428571 -n 7 -e 999.747795
N -t 0.428571 -n 0 -e 999.747795
N -t 0.428571 -n 1 -e 999.747795
s 0.428672000 _5_ AGT  --- 7 cbr 512 [0 0 0 0] [energy 999.736958 ei 0.242 es 0.000 et 0.018 er 0.003] ------- [5:0 2:0 32 0] [7] 0 0
r 0.428672000 _5_ RTR  --- 7 cbr 512 [0 0 0 0] [energy 999.736958 ei 0.242 es 0.000 et 0.018 er 0.003] ------- [5:0 2:0 32 0] [7] 0 0
s 0.428672000 _5_ RTR  --- 7 cbr 532 [0 0 0 0] [energy 999.736958 ei 0.242 es 0.000 et 0.018 er 0.003] ------- [5:0 2:0 30 2] [7] 0 0
N -t 0.428932 -n 10 -e 999.747159
N -t 0.428932 -n 8 -e 999.747159
N -t 0.428932 -n 9 -e 999.747159
N -t 0.428932 -n 5 -e 999.736829
N -t 0.428932 -n 4 -e 999.747668
N -t 0.428932 -n 3 -e 999.747159
N -t 0.428933 -n 6 -e 999.747668
N -t 0.428933 -n 0 -e 999.747668
N -t 0.428933 -n 1 -e 999.747667
N -t 0.428933 -n 7 -e 999.747667
N -t 0.429246 -n 3 -e 999.745265
N -t 0.429247 -n 8 -e 999.745265
N -t 0.429247 -n 10 -e 999.745265
N -t 0.429247 -n 9 -e 999.745265
N -t 0.429247 -n 2 -e 999.743018
N -t 0.429247 -n 4 -e 999.745773
N -t 0.429248 -n 6 -e 999.745773
N -t 0.429248 -n 7 -e 999.745773
N -t 0.429248 -n 0 -e 999.745773
N -t 0.429248 -n 1 -e 999.745773
s 0.432768000 _5_ AGT  --- 8 cbr 512 [0 0 0 0] [energy 999.732103 ei 0.242 es 0.000 et 0.023 er 0.003] ------- [5:0 2:0 32 0] [8] 0 0
r 0.432768000 _5_ RTR  --- 8 cbr 512 [0 0 0 0] [energy 999.732103 ei 0.242 es 0.000 et 0.023 er 0.003] ------- [5:0 2:0 32 0] [8] 0 0
s 0.432768000 _5_ RTR  --- 8 cbr 532 [0 0 0 0] [energy 999.732103 ei 0.242 es 0.000 et 0.023 er 0.003] ------- [5:0 2:0 30 2] [8] 0 0
N -t 0.433977 -n 10 -e 999.745137
N -t 0.433977 -n 8 -e 999.745137
N -t 0.433977 -n 9 -e 999.745137
N -t 0.433977 -n 5 -e 999.731975
N -t 0.433977 -n 4 -e 999.745646
N -t 0.433978 -n 3 -e 999.745137
N -t 0.433978 -n 6 -e 999.745645
N -t 0.433978 -n 0 -e 999.745645
N -t 0.433978 -n 1 -e 999.745645
N -t 0.433978 -n 7 -e 999.745645
r 0.433991920 _2_ AGT  --- 4 cbr 532 [13a 2 5 800] [energy 999.742708 ei 0.242 es 0.000 et 0.005 er 0.010] ------- [5:0 2:0 30 2] [4] 1 0
N -t 0.434717 -n 0 -e 999.745045
N -t 0.434717 -n 9 -e 999.744536
N -t 0.434717 -n 1 -e 999.745045
N -t 0.434717 -n 10 -e 999.744536
N -t 0.434717 -n 2 -e 999.742107
N -t 0.434717 -n 8 -e 999.744536
N -t 0.434717 -n 4 -e 999.745045
N -t 0.434717 -n 5 -e 999.731374
N -t 0.434717 -n 3 -e 999.744536
N -t 0.434718 -n 6 -e 999.745045
r 0.435589547 _0_ RTR  --- 0 AODV 48 [0 ffffffff 7 800] [energy 999.745045 ei 0.242 es 0.000 et 0.000 er 0.013] ------- [7:255 -1:255 28 0] [0x2 3 1 [2 0] [5 4]] (REQUEST)
r 0.435589802 _9_ RTR  --- 0 AODV 48 [0 ffffffff 7 800] [energy 999.744536 ei 0.242 es 0.000 et 0.001 er 0.012] ------- [7:255 -1:255 28 0] [0x2 3 1 [2 0] [5 4]] (REQUEST)
N -t 0.436039 -n 3 -e 999.744111
N -t 0.436040 -n 8 -e 999.744111
N -t 0.436040 -n 10 -e 999.744111
N -t 0.436040 -n 9 -e 999.744111
N -t 0.436040 -n 2 -e 999.741682
N -t 0.436040 -n 4 -e 999.744619
N -t 0.436040 -n 6 -e 999.744619
N -t 0.436041 -n 7 -e 999.744110
N -t 0.436041 -n 0 -e 999.744619
N -t 0.436041 -n 1 -e 999.744619
N -t 0.436402 -n 10 -e 999.743983
N -t 0.436402 -n 8 -e 999.743983
N -t 0.436402 -n 9 -e 999.743983
N -t 0.436402 -n 5 -e 999.730610
N -t 0.436402 -n 4 -e 999.744491
N -t 0.436402 -n 3 -e 999.743983
N -t 0.436403 -n 6 -e 999.744491
N -t 0.436403 -n 0 -e 999.744491
N -t 0.436403 -n 1 -e 999.744491
N -t 0.436403 -n 7 -e 999.743982
N -t 0.436716 -n 3 -e 999.742089
N -t 0.436717 -n 8 -e 999.742088
N -t 0.436717 -n 10 -e 999.742088
N -t 0.436717 -n 9 -e 999.742088
N -t 0.436717 -n 2 -e 999.739477
N -t 0.436718 -n 4 -e 999.742597
N -t 0.436718 -n 6 -e 999.742597
N -t 0.436718 -n 7 -e 999.742088
N -t 0.436718 -n 0 -e 999.742596
N -t 0.436718 -n 1 -e 999.742596
s 0.436864000 _5_ AGT  --- 9 cbr 512 [0 0 0 0] [energy 999.725884 ei 0.242 es 0.000 et 0.028 er 0.004] ------- [5:0 2:0 32 0] [9] 0 0
r 0.436864000 _5_ RTR  --- 9 cbr 512 [0 0 0 0] [energy 999.725884 ei 0.242 es 0.000 et 0.028 er 0.004] ------- [5:0 2:0 32 0] [9] 0 0
s 0.436864000 _5_ RTR  --- 9 cbr 532 [0 0 0 0] [energy 999.725884 ei 0.242 es 0.000 et 0.028 er 0.004] ------- [5:0 2:0 30 2] [9] 0 0
s 0.440960000 _5_ AGT  --- 10 cbr 512 [0 0 0 0] [energy 999.725884 ei 0.242 es 0.000 et 0.028 er 0.004] ------- [5:0 2:0 32 0] [10] 0 0
r 0.440960000 _5_ RTR  --- 10 cbr 512 [0 0 0 0] [energy 999.725884 ei 0.242 es 0.000 et 0.028 er 0.004] ------- [5:0 2:0 32 0] [10] 0 0
s 0.440960000 _5_ RTR  --- 10 cbr 532 [0 0 0 0] [energy 999.725884 ei 0.242 es 0.000 et 0.028 er 0.004] ------- [5:0 2:0 30 2] [10] 0 0
N -t 0.441447 -n 10 -e 999.741960
N -t 0.441447 -n 8 -e 999.741960
N -t 0.441447 -n 9 -e 999.741960
N -t 0.441448 -n 5 -e 999.725755
N -t 0.441448 -n 4 -e 999.742469
N -t 0.441448 -n 3 -e 999.741960
N -t 0.441448 -n 6 -e 999.742469
N -t 0.441448 -n 0 -e 999.742469
N -t 0.441448 -n 1 -e 999.742469
N -t 0.441448 -n 7 -e 999.741960
r 0.441461958 _2_ AGT  --- 1 cbr 532 [13a 2 5 800] [energy 999.739167 ei 0.242 es 0.000 et 0.006 er 0.013] ------- [5:0 2:0 30 2] [1] 1 0
N -t 0.442202 -n 3 -e 999.741549
N -t 0.442202 -n 8 -e 999.741549
N -t 0.442202 -n 10 -e 999.741549
N -t 0.442202 -n 9 -e 999.741549
N -t 0.442202 -n 2 -e 999.738756
N -t 0.442203 -n 4 -e 999.742058
N -t 0.442203 -n 6 -e 999.742058
N -t 0.442203 -n 7 -e 999.741549
N -t 0.442203 -n 0 -e 999.742057
N -t 0.442203 -n 1 -e 999.742057
N -t 0.442564 -n 10 -e 999.741421
N -t 0.442564 -n 8 -e 999.741421
N -t 0.442565 -n 9 -e 999.741421
N -t 0.442565 -n 5 -e 999.725005
N -t 0.442565 -n 4 -e 999.741930
N -t 0.442565 -n 3 -e 999.741421
N -t 0.442565 -n 6 -e 999.741930
N -t 0.442565 -n 0 -e 999.741930
N -t 0.442565 -n 1 -e 999.741930
N -t 0.442565 -n 7 -e 999.741421
N -t 0.442879 -n 3 -e 999.739527
N -t 0.442879 -n 8 -e 999.739527
N -t 0.442879 -n 10 -e 999.739527
N -t 0.442879 -n 9 -e 999.739527
N -t 0.442879 -n 2 -e 999.736551
N -t 0.442880 -n 4 -e 999.740035
N -t 0.442880 -n 6 -e 999.740035
N -t 0.442880 -n 7 -e 999.739526
N -t 0.442880 -n 0 -e 999.740035
N -t 0.442880 -n 1 -e 999.740035
s 0.444210219 _0_ RTR  --- 0 AODV 48 [0 ffffffff 7 800] [energy 999.740035 ei 0.243 es 0.000 et 0.000 er 0.017] ------- [0:255 -1:255 27 0] [0x2 4 1 [2 0] [5 4]] (REQUEST)
s 0.445056000 _5_ AGT  --- 11 cbr 512 [0 0 0 0] [energy 999.720279 ei 0.243 es 0.000 et 0.033 er 0.004] ------- [5:0 2:0 32 0] [11] 0 0
r 0.445056000 _5_ RTR  --- 11 cbr 512 [0 0 0 0] [energy 999.720279 ei 0.243 es 0.000 et 0.033 er 0.004] ------- [5:0 2:0 32 0] [11] 0 0
s 0.445056000 _5_ RTR  --- 11 cbr 532 [0 0 0 0] [energy 999.720279 ei 0.243 es 0.000 et 0.033 er 0.004] ------- [5:0 2:0 30 2] [11] 0 0
N -t 0.447609 -n 10 -e 999.739399
N -t 0.447610 -n 8 -e 999.739399
N -t 0.447610 -n 9 -e 999.739399
N -t 0.447610 -n 5 -e 999.720151
N -t 0.447610 -n 4 -e 999.739908
N -t 0.447610 -n 3 -e 999.739399
N -t 0.447610 -n 6 -e 999.739908
N -t 0.447610 -n 0 -e 999.739907
N -t 0.447610 -n 1 -e 999.739907
N -t 0.447610 -n 7 -e 999.739399
r 0.447624164 _2_ AGT  --- 5 cbr 532 [13a 2 5 800] [energy 999.736241 ei 0.243 es 0.000 et 0.006 er 0.015] ------- [5:0 2:0 30 2] [5] 1 0
N -t 0.448324 -n 3 -e 999.739012
N -t 0.448324 -n 8 -e 999.739012
N -t 0.448324 -n 10 -e 999.739012
N -t 0.448324 -n 9 -e 999.739012
N -t 0.448324 -n 2 -e 999.735853
N -t 0.448325 -n 4 -e 999.739520
N -t 0.448325 -n 6 -e 999.739520
N -t 0.448325 -n 7 -e 999.739011
N -t 0.448325 -n 0 -e 999.739520
N -t 0.448325 -n 1 -e 999.739520
N -t 0.448687 -n 10 -e 999.738884
N -t 0.448687 -n 8 -e 999.738884
N -t 0.448687 -n 9 -e 999.738884
N -t 0.448687 -n 5 -e 999.719425
N -t 0.448687 -n 4 -e 999.739393
N -t 0.448687 -n 3 -e 999.738884
N -t 0.448687 -n 6 -e 999.739393
N -t 0.448687 -n 0 -e 999.739392
N -t 0.448687 -n 1 -e 999.739392
N -t 0.448687 -n 7 -e 999.738884
N -t 0.449001 -n 3 -e 999.736990
N -t 0.449001 -n 8 -e 999.736990
N -t 0.449001 -n 10 -e 999.736990
N -t 0.449001 -n 9 -e 999.736990
N -t 0.449001 -n 2 -e 999.733649
N -t 0.449002 -n 4 -e 999.737498
N -t 0.449002 -n 6 -e 999.737498
N -t 0.449002 -n 7 -e 999.736989
N -t 0.449002 -n 0 -e 999.737498
N -t 0.449002 -n 1 -e 999.737498
s 0.449152000 _5_ AGT  --- 12 cbr 512 [0 0 0 0] [energy 999.714699 ei 0.243 es 0.000 et 0.038 er 0.004] ------- [5:0 2:0 32 0] [12] 0 0
r 0.449152000 _5_ RTR  --- 12 cbr 512 [0 0 0 0] [energy 999.714699 ei 0.243 es 0.000 et 0.038 er 0.004] ------- [5:0 2:0 32 0] [12] 0 0
s 0.449152000 _5_ RTR  --- 12 cbr 532 [0 0 0 0] [energy 999.714699 ei 0.243 es 0.000 et 0.038 er 0.004] ------- [5:0 2:0 30 2] [12] 0 0
s 0.453248000 _5_ AGT  --- 13 cbr 512 [0 0 0 0] [energy 999.714699 ei 0.243 es 0.000 et 0.038 er 0.004] ------- [5:0 2:0 32 0] [13] 0 0
r 0.453248000 _5_ RTR  --- 13 cbr 512 [0 0 0 0] [energy 999.714699 ei 0.243 es 0.000 et 0.038 er 0.004] ------- [5:0 2:0 32 0] [13] 0 0
s 0.453248000 _5_ RTR  --- 13 cbr 532 [0 0 0 0] [energy 999.714699 ei 0.243 es 0.000 et 0.038 er 0.004] ------- [5:0 2:0 30 2] [13] 0 0
N -t 0.453732 -n 10 -e 999.736862
N -t 0.453732 -n 8 -e 999.736862
N -t 0.453732 -n 9 -e 999.736862
N -t 0.453732 -n 5 -e 999.714570
N -t 0.453732 -n 4 -e 999.737370
N -t 0.453732 -n 3 -e 999.736862
N -t 0.453732 -n 6 -e 999.737370
N -t 0.453732 -n 0 -e 999.737370
N -t 0.453732 -n 1 -e 999.737370
N -t 0.453732 -n 7 -e 999.736861
r 0.453746371 _2_ AGT  --- 6 cbr 532 [13a 2 5 800] [energy 999.733339 ei 0.243 es 0.000 et 0.007 er 0.017] ------- [5:0 2:0 30 2] [6] 1 0
N -t 0.454126 -n 3 -e 999.736667
N -t 0.454126 -n 8 -e 999.736667
N -t 0.454126 -n 10 -e 999.736667
N -t 0.454126 -n 9 -e 999.736667
N -t 0.454126 -n 2 -e 999.733143
N -t 0.454127 -n 4 -e 999.737175
N -t 0.454127 -n 6 -e 999.737175
N -t 0.454127 -n 7 -e 999.736666
N -t 0.454127 -n 0 -e 999.737175
N -t 0.454128 -n 1 -e 999.737175
N -t 0.454489 -n 10 -e 999.736539
N -t 0.454489 -n 8 -e 999.736539
N -t 0.454489 -n 9 -e 999.736539
N -t 0.454489 -n 5 -e 999.714036
N -t 0.454489 -n 4 -e 999.737047
N -t 0.454489 -n 3 -e 999.736539
N -t 0.454489 -n 6 -e 999.737047
N -t 0.454489 -n 0 -e 999.737047
N -t 0.454490 -n 1 -e 999.737047
N -t 0.454490 -n 7 -e 999.736538
N -t 0.454803 -n 3 -e 999.734645
N -t 0.454803 -n 8 -e 999.734644
N -t 0.454803 -n 10 -e 999.734644
N -t 0.454804 -n 9 -e 999.734644
N -t 0.454804 -n 2 -e 999.730939
N -t 0.454804 -n 4 -e 999.735153
N -t 0.454804 -n 6 -e 999.735153
N -t 0.454804 -n 7 -e 999.734644
N -t 0.454804 -n 0 -e 999.735153
N -t 0.454805 -n 1 -e 999.735152
s 0.457344000 _5_ AGT  --- 14 cbr 512 [0 0 0 0] [energy 999.709310 ei 0.243 es 0.000 et 0.043 er 0.005] ------- [5:0 2:0 32 0] [14] 0 0
r 0.457344000 _5_ RTR  --- 14 cbr 512 [0 0 0 0] [energy 999.709310 ei 0.243 es 0.000 et 0.043 er 0.005] ------- [5:0 2:0 32 0] [14] 0 0
s 0.457344000 _5_ RTR  --- 14 cbr 532 [0 0 0 0] [energy 999.709310 ei 0.243 es 0.000 et 0.043 er 0.005] ------- [5:0 2:0 30 2] [14] 0 0
N -t 0.459534 -n 10 -e 999.734516
N -t 0.459534 -n 8 -e 999.734516
N -t 0.459534 -n 9 -e 999.734516
N -t 0.459534 -n 5 -e 999.709182
N -t 0.459534 -n 4 -e 999.735025
N -t 0.459534 -n 3 -e 999.734516
N -t 0.459534 -n 6 -e 999.735025
N -t 0.459535 -n 0 -e 999.735025
N -t 0.459535 -n 1 -e 999.735025
N -t 0.459535 -n 7 -e 999.734516
r 0.459548577 _2_ AGT  --- 7 cbr 532 [13a 2 5 800] [energy 999.730629 ei 0.243 es 0.000 et 0.007 er 0.019] ------- [5:0 2:0 30 2] [7] 1 0
N -t 0.460188 -n 3 -e 999.734165
N -t 0.460188 -n 8 -e 999.734165
N -t 0.460188 -n 10 -e 999.734165
N -t 0.460189 -n 9 -e 999.734165
N -t 0.460189 -n 2 -e 999.730277
N -t 0.460189 -n 4 -e 999.734674
N -t 0.460189 -n 6 -e 999.734674
N -t 0.460189 -n 7 -e 999.734165
N -t 0.460190 -n 0 -e 999.734673
N -t 0.460190 -n 1 -e 999.734673
N -t 0.460551 -n 10 -e 999.734037
N -t 0.460551 -n 8 -e 999.734037
N -t 0.460551 -n 9 -e 999.734037
N -t 0.460551 -n 5 -e 999.708492
N -t 0.460551 -n 4 -e 999.734546
N -t 0.460551 -n 3 -e 999.734037
N -t 0.460551 -n 6 -e 999.734546
N -t 0.460552 -n 0 -e 999.734546
N -t 0.460552 -n 1 -e 999.734546
N -t 0.460552 -n 7 -e 999.734037
N -t 0.460865 -n 3 -e 999.732143
N -t 0.460865 -n 8 -e 999.732143
N -t 0.460866 -n 10 -e 999.732143
N -t 0.460866 -n 9 -e 999.732143